 Entering Gaussian System, Link 0=g09
 Initial command:
 /projects/guscus/apps/gau/g09-d1source/g09/l1.exe "/shared.scratch/jz21/ttpp/tmp/Gau-7884.inp" -scrdir="/shared.scratch/jz21/ttpp/tmp/"
 Entering Link 1 = /projects/guscus/apps/gau/g09-d1source/g09/l1.exe PID=      7885.
  
 Copyright (c) 1988,1990,1992,1993,1995,1998,2003,2009,2013,
            Gaussian, Inc.  All Rights Reserved.
  
 This is part of the Gaussian(R) 09 program.  It is based on
 the Gaussian(R) 03 system (copyright 2003, Gaussian, Inc.),
 the Gaussian(R) 98 system (copyright 1998, Gaussian, Inc.),
 the Gaussian(R) 94 system (copyright 1995, Gaussian, Inc.),
 the Gaussian 92(TM) system (copyright 1992, Gaussian, Inc.),
 the Gaussian 90(TM) system (copyright 1990, Gaussian, Inc.),
 the Gaussian 88(TM) system (copyright 1988, Gaussian, Inc.),
 the Gaussian 86(TM) system (copyright 1986, Carnegie Mellon
 University), and the Gaussian 82(TM) system (copyright 1983,
 Carnegie Mellon University). Gaussian is a federally registered
 trademark of Gaussian, Inc.
  
 This software contains proprietary and confidential information,
 including trade secrets, belonging to Gaussian, Inc.
  
 This software is provided under written license and may be
 used, copied, transmitted, or stored only in accord with that
 written license.
  
 The following legend is applicable only to US Government
 contracts under FAR:
  
                    RESTRICTED RIGHTS LEGEND
  
 Use, reproduction and disclosure by the US Government is
 subject to restrictions as set forth in subparagraphs (a)
 and (c) of the Commercial Computer Software - Restricted
 Rights clause in FAR 52.227-19.
  
 Gaussian, Inc.
 340 Quinnipiac St., Bldg. 40, Wallingford CT 06492
  
  
 ---------------------------------------------------------------
 Warning -- This program may not be used in any manner that
 competes with the business of Gaussian, Inc. or will provide
 assistance to any competitor of Gaussian, Inc.  The licensee
 of this program is prohibited from giving any competitor of
 Gaussian, Inc. access to this program.  By using this program,
 the user acknowledges that Gaussian, Inc. is engaged in the
 business of creating and licensing software in the field of
 computational chemistry and represents and warrants to the
 licensee that it is not a competitor of Gaussian, Inc. and that
 it will not use this program in any manner prohibited above.
 ---------------------------------------------------------------
  

 Cite this work as:
 Gaussian 09, Revision D.01,
 M. J. Frisch, G. W. Trucks, H. B. Schlegel, G. E. Scuseria, 
 M. A. Robb, J. R. Cheeseman, G. Scalmani, V. Barone, B. Mennucci, 
 G. A. Petersson, H. Nakatsuji, M. Caricato, X. Li, H. P. Hratchian, 
 A. F. Izmaylov, J. Bloino, G. Zheng, J. L. Sonnenberg, M. Hada, 
 M. Ehara, K. Toyota, R. Fukuda, J. Hasegawa, M. Ishida, T. Nakajima, 
 Y. Honda, O. Kitao, H. Nakai, T. Vreven, J. A. Montgomery, Jr., 
 J. E. Peralta, F. Ogliaro, M. Bearpark, J. J. Heyd, E. Brothers, 
 K. N. Kudin, V. N. Staroverov, T. Keith, R. Kobayashi, J. Normand, 
 K. Raghavachari, A. Rendell, J. C. Burant, S. S. Iyengar, J. Tomasi, 
 M. Cossi, N. Rega, J. M. Millam, M. Klene, J. E. Knox, J. B. Cross, 
 V. Bakken, C. Adamo, J. Jaramillo, R. Gomperts, R. E. Stratmann, 
 O. Yazyev, A. J. Austin, R. Cammi, C. Pomelli, J. W. Ochterski, 
 R. L. Martin, K. Morokuma, V. G. Zakrzewski, G. A. Voth, 
 P. Salvador, J. J. Dannenberg, S. Dapprich, A. D. Daniels, 
 O. Farkas, J. B. Foresman, J. V. Ortiz, J. Cioslowski, 
 and D. J. Fox, Gaussian, Inc., Wallingford CT, 2013.
 
 ******************************************
 Gaussian 09:  EM64L-G09RevD.01 24-Apr-2013
                17-Mar-2015 
 ******************************************
 %NProcShared=12
 Will use up to   12 processors via shared memory.
 %Mem=15GB
 %chk=tube.chk
 ----------------------------------------------------------------
 # sp ub3lyp/6-311++G* EmpiricalDispersion=GD3BJ guess=read force
 ----------------------------------------------------------------
 1/10=4,30=1,38=1/1,3;
 2/12=2,17=6,18=5,40=1/2;
 3/5=4,6=6,7=1011,11=2,16=1,25=1,30=1,71=2,74=-5,116=2,124=41,140=1/1,2,3;
 4/5=1/1;
 5/5=2,38=6,98=1/2;
 8/6=4,10=90,11=11/1;
 11/6=1,8=1,9=11,15=111,16=1/1,2,10;
 10/6=1/2;
 6/7=2,8=2,9=2,10=2,18=1,28=1/1;
 7/8=1,10=1,25=1/1,2,3,16;
 1/10=4,30=1/3;
 99//99;
 ------------------
 Single point No 04
 ------------------
 Symbolic Z-matrix:
 Charge =  0 Multiplicity = 1
 6                    -3.67842  -0.68439   0.01407 
 6                    -2.46261  -1.42139   0.01022 
 6                    -1.2338   -0.71223   0.00459 
 6                    -1.2339    0.71254   0.00425 
 6                    -2.46252   1.42188   0.00996 
 6                    -3.67842   0.68524   0.01396 
 6                     0.00005  -1.42467   0.00389 
 6                    -0.00005   1.42467   0.00389 
 6                     1.2338    0.71223   0.00459 
 6                     1.2339   -0.71254   0.00425 
 6                     2.46261   1.42139   0.01022 
 6                     2.43228   2.84278   0.01339 
 6                     1.2461    3.52756   0.0129 
 6                    -0.0001    2.84323   0.00932 
 6                    -1.24616   3.52783   0.01284 
 6                    -2.43238   2.84319   0.01321 
 1                    -3.37364   3.38434   0.01696 
 1                    -1.24415   4.61356   0.01632 
 1                    -4.61775  -1.22886   0.01785 
 1                    -4.61762   1.22996   0.01774 
 1                     3.37355   3.38396   0.01704 
 1                     1.24434   4.61332   0.01627 
 6                    -2.43228  -2.84278   0.01339 
 6                    -1.2461   -3.52756   0.0129 
 6                     0.0001   -2.84323   0.00932 
 1                    -3.37355  -3.38396   0.01704 
 1                    -1.24434  -4.61332   0.01627 
 6                     1.24616  -3.52783   0.01284 
 6                     2.43238  -2.84319   0.01321 
 6                     2.46252  -1.42188   0.00996 
 1                     1.24415  -4.61356   0.01632 
 1                     3.37364  -3.38434   0.01696 
 6                     3.67842   0.68439   0.01407 
 1                     4.61775   1.22886   0.01785 
 6                     3.67842  -0.68524   0.01396 
 1                     4.61762  -1.22996   0.01774 
 1                     0.34706   0.13096   2.47106 
 1                    -0.34706  -0.13096   2.47106 
 

 GradGradGradGradGradGradGradGradGradGradGradGradGradGradGradGradGradGrad
 Berny optimization.
 Initialization pass.
 Trust Radius=3.00D-01 FncErr=1.00D-07 GrdErr=1.00D-07
 Number of steps in this run=      2 maximum allowed number of steps=      2.
 GradGradGradGradGradGradGradGradGradGradGradGradGradGradGradGradGradGrad

                          Input orientation:                          
 ---------------------------------------------------------------------
 Center     Atomic      Atomic             Coordinates (Angstroms)
 Number     Number       Type             X           Y           Z
 ---------------------------------------------------------------------
      1          6           0       -3.678422   -0.684390    0.014072
      2          6           0       -2.462606   -1.421394    0.010223
      3          6           0       -1.233798   -0.712228    0.004589
      4          6           0       -1.233899    0.712536    0.004252
      5          6           0       -2.462518    1.421877    0.009963
      6          6           0       -3.678423    0.685237    0.013960
      7          6           0        0.000051   -1.424670    0.003888
      8          6           0       -0.000051    1.424670    0.003888
      9          6           0        1.233798    0.712228    0.004589
     10          6           0        1.233899   -0.712536    0.004252
     11          6           0        2.462606    1.421394    0.010223
     12          6           0        2.432280    2.842778    0.013392
     13          6           0        1.246103    3.527562    0.012896
     14          6           0       -0.000095    2.843231    0.009323
     15          6           0       -1.246157    3.527834    0.012836
     16          6           0       -2.432382    2.843193    0.013214
     17          1           0       -3.373635    3.384340    0.016957
     18          1           0       -1.244149    4.613563    0.016317
     19          1           0       -4.617753   -1.228859    0.017848
     20          1           0       -4.617620    1.229959    0.017735
     21          1           0        3.373550    3.383957    0.017040
     22          1           0        1.244343    4.613318    0.016271
     23          6           0       -2.432280   -2.842778    0.013392
     24          6           0       -1.246103   -3.527562    0.012896
     25          6           0        0.000095   -2.843231    0.009323
     26          1           0       -3.373550   -3.383957    0.017040
     27          1           0       -1.244343   -4.613318    0.016271
     28          6           0        1.246157   -3.527834    0.012836
     29          6           0        2.432382   -2.843193    0.013214
     30          6           0        2.462518   -1.421877    0.009963
     31          1           0        1.244149   -4.613563    0.016317
     32          1           0        3.373635   -3.384340    0.016957
     33          6           0        3.678422    0.684390    0.014072
     34          1           0        4.617753    1.228859    0.017848
     35          6           0        3.678423   -0.685237    0.013960
     36          1           0        4.617620   -1.229959    0.017735
     37          1           0        0.347056    0.130964    2.471056
     38          1           0       -0.347056   -0.130964    2.471056
 ---------------------------------------------------------------------
                    Distance matrix (angstroms):
                    1          2          3          4          5
     1  C    0.000000
     2  C    1.421759   0.000000
     3  C    2.444801   1.418773   0.000000
     4  C    2.815527   2.462400   1.424764   0.000000
     5  C    2.432036   2.843271   2.462557   1.418697   0.000000
     6  C    1.369627   2.432307   2.815881   2.444696   1.421647
     7  C    3.752237   2.462667   1.424766   2.467850   3.763923
     8  C    4.240124   3.763549   2.467482   1.424611   2.462476
     9  C    5.106911   4.267995   2.849229   2.467697   3.763826
    10  C    4.912411   3.763863   2.467697   2.849712   4.268401
    11  C    6.492039   5.686753   4.267995   3.763863   4.925124
    12  C    7.055607   6.491770   5.106689   4.240151   5.096864
    13  C    6.480084   6.184391   4.911802   3.751647   4.264714
    14  C    5.096491   4.924529   3.763421   2.462145   2.843198
    15  C    4.864026   5.096529   4.240088   2.815338   2.431994
    16  C    3.741184   4.264695   3.752026   2.444615   1.421639
    17  H    4.080131   4.891329   4.621788   3.423035   2.163665
    18  H    5.830437   6.156735   5.325814   3.901059   3.416332
    19  H    1.085727   2.163744   3.423191   3.901239   3.416358
    20  H    2.132332   3.416696   3.901604   3.423080   2.163645
    21  H    8.141361   7.559905   6.164945   5.325903   6.157069
    22  H    7.231828   7.082320   5.873905   4.621464   4.891437
    23  C    2.492290   1.421711   2.444520   3.751861   4.264764
    24  C    3.741631   2.432248   2.815373   4.240124   5.096726
    25  C    4.265220   2.843680   2.462456   3.763807   4.924998
    26  H    2.716729   2.163682   3.422985   4.621637   4.891428
    27  H    4.621820   3.416516   3.901122   5.325878   6.156912
    28  C    5.686533   4.265210   3.752050   4.912381   6.184975
    29  C    6.480923   5.097296   4.240514   5.107338   6.492371
    30  C    6.185067   4.925124   3.763826   4.268401   5.687083
    31  H    6.298421   4.891831   4.621772   5.874368   7.082793
    32  H    7.551241   6.157509   5.326235   6.165543   7.560453
    33  C    7.483095   6.492039   5.106911   4.912411   6.185067
    34  H    8.513933   7.560118   6.165115   5.874403   7.082906
    35  C    7.356845   6.184996   4.912304   5.107325   6.492388
    36  H    8.313962   7.082818   5.874292   6.165529   7.560466
    37  H    4.786026   4.044714   3.048529   2.987100   3.951853
    38  H    4.176248   3.492343   2.684705   2.753744   3.597704
                    6          7          8          9         10
     6  C    0.000000
     7  C    4.240634   0.000000
     8  C    3.751971   2.849340   0.000000
     9  C    4.912304   2.467482   1.424766   0.000000
    10  C    5.107325   1.424611   2.467850   1.424764   0.000000
    11  C    6.184996   3.763549   2.462667   1.418773   2.462400
    12  C    6.480407   4.911918   2.815556   2.444520   3.751861
    13  C    5.685927   5.106597   2.444409   2.815373   4.240124
    14  C    4.264629   4.267904   1.418571   2.462456   3.763807
    15  C    3.741160   5.106898   2.444618   3.752050   4.912381
    16  C    2.491865   4.912379   2.815764   4.240514   5.107338
    17  H    2.716259   5.874394   3.901480   5.326235   6.165543
    18  H    4.621411   6.165099   3.423006   4.621772   5.874368
    19  H    2.132163   4.621975   5.325841   6.165115   5.874403
    20  H    1.085738   5.326362   4.621693   5.874292   6.165529
    21  H    7.550723   5.873973   3.901303   3.422985   4.621637
    22  H    6.297893   6.164878   3.422886   3.901122   5.325878
    23  C    3.741626   2.815556   4.911918   5.106689   4.240151
    24  C    4.864551   2.444409   5.106597   4.911802   3.751647
    25  C    5.097215   1.418571   4.267904   3.763421   2.462145
    26  H    4.080600   3.901303   5.873973   6.164945   5.325903
    27  H    5.830904   3.422886   6.164878   5.873905   4.621464
    28  C    6.480853   2.444618   5.106898   4.240088   2.815338
    29  C    7.056327   2.815764   4.912379   3.752026   2.444615
    30  C    6.492388   2.462476   3.763923   2.462557   1.418697
    31  H    7.232496   3.423006   6.165099   5.325814   3.901059
    32  H    8.142051   3.901480   5.874394   4.621788   3.423035
    33  C    7.356845   4.240124   3.752237   2.444801   2.815527
    34  H    8.313969   5.325841   4.621975   3.423191   3.901239
    35  C    7.483407   3.751971   4.240634   2.815881   2.444696
    36  H    8.514242   4.621693   5.326362   3.901604   3.423080
    37  H    4.748581   2.937231   2.807325   2.684705   2.753744
    38  H    4.219184   2.807325   2.937231   3.048529   2.987100
                   11         12         13         14         15
    11  C    0.000000
    12  C    1.421711   0.000000
    13  C    2.432248   1.369652   0.000000
    14  C    2.843680   2.432378   1.421735   0.000000
    15  C    4.265210   3.741684   2.492260   1.421747   0.000000
    16  C    5.097296   4.864662   3.741606   2.432290   1.369622
    17  H    6.157509   5.831119   4.621959   3.416669   2.132316
    18  H    4.891831   4.080664   2.716756   2.163746   1.085736
    19  H    7.560118   8.141327   7.550389   6.156684   5.830421
    20  H    7.082818   7.232032   6.297797   4.891243   4.080076
    21  H    2.163682   1.085761   2.132292   3.416713   4.621949
    22  H    3.416516   2.132138   1.085763   2.163766   2.716777
    23  C    6.491770   7.482613   7.356068   6.184354   6.480091
    24  C    6.184391   7.356068   7.482370   6.491498   7.055396
    25  C    4.924529   6.184354   6.491498   5.686462   6.491812
    26  H    7.559905   8.513513   8.313261   7.082240   7.231782
    27  H    7.082320   8.313299   8.513299   7.559651   8.141153
    28  C    5.096529   6.480091   7.055396   6.491812   7.482919
    29  C    4.264695   5.685971   6.480261   6.184851   7.356741
    30  C    2.843271   4.264764   5.096726   4.924998   6.184975
    31  H    6.156735   7.550410   8.141126   7.559892   8.513752
    32  H    4.891329   6.297870   7.231929   7.082708   8.313883
    33  C    1.421759   2.492290   3.741631   4.265220   5.686533
    34  H    2.163744   2.716808   4.080696   4.891911   6.298472
    35  C    2.432307   3.741626   4.864551   5.097215   6.480853
    36  H    3.416696   4.622004   5.831051   6.157454   7.551192
    37  H    3.492343   4.212150   4.288090   3.679271   4.485521
    38  H    4.044714   4.754783   4.686739   3.876383   4.498670
                   16         17         18         19         20
    16  C    0.000000
    17  H    1.085731   0.000000
    18  H    2.132163   2.458801   0.000000
    19  H    4.621415   4.778016   6.746488   0.000000
    20  H    2.716212   2.487741   4.777979   2.458818   0.000000
    21  H    5.831062   6.747185   4.778606   9.227079   8.276382
    22  H    4.080644   4.778714   2.488492   8.276183   6.768289
    23  C    5.685971   6.297870   7.550410   2.716808   4.622004
    24  C    6.480261   7.231929   8.141126   4.080696   5.831051
    25  C    6.184851   7.082708   7.559892   4.891911   6.157454
    26  H    6.297873   6.768297   8.276151   2.488471   4.778696
    27  H    7.550563   8.276256   9.226881   4.778542   6.747065
    28  C    7.356741   8.313883   8.513752   6.298472   7.551192
    29  C    7.483376   8.514224   8.313850   7.232600   8.142058
    30  C    6.492371   7.560453   7.082793   7.082906   7.560466
    31  H    8.313850   9.235279   9.556751   6.768908   8.276901
    32  H    8.514224   9.557232   9.235279   8.276979   9.227779
    33  C    6.480923   7.551241   6.298421   8.513933   8.313962
    34  H    7.232600   8.276979   6.768908   9.556932   9.235373
    35  C    7.056327   8.142051   7.232496   8.313969   8.514242
    36  H    8.142058   9.227779   8.276901   9.235373   9.557241
    37  H    4.595917   5.518206   5.352698   5.702340   5.645758
    38  H    4.385793   5.247870   5.416738   5.046034   5.109659
                   21         22         23         24         25
    21  H    0.000000
    22  H    2.458628   0.000000
    23  C    8.513513   8.313299   0.000000
    24  C    8.313261   8.513299   1.369652   0.000000
    25  C    7.082240   7.559651   2.432378   1.421735   0.000000
    26  H    9.556569   9.234790   1.085761   2.132292   3.416713
    27  H    9.234790   9.556378   2.132138   1.085763   2.163766
    28  C    7.231782   8.141153   3.741684   2.492260   1.421747
    29  C    6.297873   7.550563   4.864662   3.741606   2.432290
    30  C    4.891428   6.156912   5.096864   4.264714   2.843198
    31  H    8.276151   9.226881   4.080664   2.716756   2.163746
    32  H    6.768297   8.276256   5.831119   4.621959   3.416669
    33  C    2.716729   4.621820   7.055607   6.480084   5.096491
    34  H    2.488471   4.778542   8.141327   7.550389   6.156684
    35  C    4.080600   5.830904   6.480407   5.685927   4.264629
    36  H    4.778696   6.747065   7.232032   6.297797   4.891243
    37  H    5.075808   5.188698   4.754783   4.686739   3.876383
    38  H    5.676246   5.573754   4.212150   4.288090   3.679271
                   26         27         28         29         30
    26  H    0.000000
    27  H    2.458628   0.000000
    28  C    4.621949   2.716777   0.000000
    29  C    5.831062   4.080644   1.369622   0.000000
    30  C    6.157069   4.891437   2.431994   1.421639   0.000000
    31  H    4.778606   2.488492   1.085736   2.132163   3.416332
    32  H    6.747185   4.778714   2.132316   1.085731   2.163665
    33  C    8.141361   7.231828   4.864026   3.741184   2.432036
    34  H    9.227079   8.276183   5.830421   4.621415   3.416358
    35  C    7.550723   6.297893   3.741160   2.491865   1.421647
    36  H    8.276382   6.768289   4.080076   2.716212   2.163645
    37  H    5.676246   5.573754   4.498670   4.385793   3.597704
    38  H    5.075808   5.188698   4.485521   4.595917   3.951853
                   31         32         33         34         35
    31  H    0.000000
    32  H    2.458801   0.000000
    33  C    5.830437   4.080131   0.000000
    34  H    6.746488   4.778016   1.085727   0.000000
    35  C    4.621411   2.716259   1.369627   2.132163   0.000000
    36  H    4.777979   2.487741   2.132332   2.458818   1.085738
    37  H    5.416738   5.247870   4.176248   5.046034   4.219184
    38  H    5.352698   5.518206   4.786026   5.702340   4.748581
                   36         37         38
    36  H    0.000000
    37  H    5.109659   0.000000
    38  H    5.645758   0.741888   0.000000
 Stoichiometry    C24H14
 Framework group  C2[X(C24H14)]
 Deg. of freedom    55
 Full point group                 C2      NOp   2
 Largest Abelian subgroup         C2      NOp   2
 Largest concise Abelian subgroup C2      NOp   2
                         Standard orientation:                         
 ---------------------------------------------------------------------
 Center     Atomic      Atomic             Coordinates (Angstroms)
 Number     Number       Type             X           Y           Z
 ---------------------------------------------------------------------
      1          6           0        0.347662    3.725360   -0.027812
      2          6           0       -0.693744    2.757446   -0.031661
      3          6           0       -0.347662    1.381542   -0.037295
      4          6           0        1.022816    0.991999   -0.037632
      5          6           0        2.041114    1.979793   -0.031921
      6          6           0        1.665077    3.350800   -0.027924
      7          6           0       -1.370374    0.389565   -0.037996
      8          6           0        1.370374   -0.389565   -0.037996
      9          6           0        0.347662   -1.381542   -0.037295
     10          6           0       -1.022816   -0.991999   -0.037632
     11          6           0        0.693744   -2.757446   -0.031661
     12          6           0        2.069236   -3.116991   -0.028492
     13          6           0        3.052307   -2.163305   -0.028988
     14          6           0        2.734869   -0.777466   -0.032561
     15          6           0        3.734143    0.233872   -0.029048
     16          6           0        3.400006    1.562110   -0.028670
     17          1           0        4.177935    2.319490   -0.024927
     18          1           0        4.777933   -0.064981   -0.025567
     19          1           0        0.080834    4.777782   -0.024036
     20          1           0        2.445882    4.105225   -0.024149
     21          1           0        2.332369   -4.170379   -0.024844
     22          1           0        4.097154   -2.458541   -0.025613
     23          6           0       -2.069236    3.116991   -0.028492
     24          6           0       -3.052307    2.163305   -0.028988
     25          6           0       -2.734869    0.777466   -0.032561
     26          1           0       -2.332369    4.170379   -0.024844
     27          1           0       -4.097154    2.458541   -0.025613
     28          6           0       -3.734143   -0.233872   -0.029048
     29          6           0       -3.400006   -1.562110   -0.028670
     30          6           0       -2.041114   -1.979793   -0.031921
     31          1           0       -4.777933    0.064981   -0.025567
     32          1           0       -4.177935   -2.319490   -0.024927
     33          6           0       -0.347662   -3.725360   -0.027812
     34          1           0       -0.080834   -4.777782   -0.024036
     35          6           0       -1.665077   -3.350800   -0.027924
     36          1           0       -2.445882   -4.105225   -0.024149
     37          1           0        0.031060   -0.369641    2.429172
     38          1           0       -0.031060    0.369641    2.429172
 ---------------------------------------------------------------------
 Rotational constants (GHZ):      0.3320223      0.3319150      0.1673171
 Standard basis: 6-311++G(d) (5D, 7F)
 There are   304 symmetry adapted cartesian basis functions of A   symmetry.
 There are   304 symmetry adapted cartesian basis functions of B   symmetry.
 There are   292 symmetry adapted basis functions of A   symmetry.
 There are   292 symmetry adapted basis functions of B   symmetry.
   584 basis functions,   948 primitive gaussians,   608 cartesian basis functions
    79 alpha electrons       79 beta electrons
       nuclear repulsion energy      1877.0392245851 Hartrees.
 NAtoms=   38 NActive=   38 NUniq=   19 SFac= 4.00D+00 NAtFMM=   60 NAOKFM=F Big=F
 Integral buffers will be    131072 words long.
 Raffenetti 2 integral format.
 Two-electron integral symmetry is turned on.
 Nuclear repulsion after empirical dispersion term =     1876.9297905252 Hartrees.
 One-electron integrals computed using PRISM.
 NBasis=   584 RedAO= T EigKep=  1.38D-06  NBF=   292   292
 NBsUse=   564 1.00D-06 EigRej=  6.15D-07 NBFU=   282   282
 Initial guess from the checkpoint file:  "tube.chk"
 B after Tr=     0.000000    0.000000    0.000000
         Rot=    1.000000    0.000000    0.000000    0.000000 Ang=   0.00 deg.
 Initial guess orbital symmetries:
 Alpha Orbitals:
       Occupied  (A) (B) (B) (A) (B) (A) (B) (A) (B) (A) (A) (B)
                 (A) (B) (B) (A) (B) (A) (B) (A) (B) (A) (B) (A)
                 (A) (B) (B) (A) (A) (A) (B) (B) (B) (B) (A) (A)
                 (A) (A) (B) (B) (A) (A) (B) (B) (B) (B) (A) (A)
                 (A) (B) (B) (A) (A) (A) (A) (B) (B) (B) (A) (A)
                 (A) (B) (B) (A) (B) (B) (B) (B) (A) (A) (A) (A)
                 (A) (B) (B) (B) (B) (A) (A)
       Virtual   (B) (B) (A) (A) (A) (A) (B) (B) (A) (A) (A) (B)
                 (B) (B) (A) (B) (A) (B) (A) (A) (B) (B) (B) (B)
                 (A) (A) (A) (B) (B) (A) (A) (A) (A) (B) (B) (B)
                 (B) (A) (A) (A) (A) (B) (B) (B) (B) (A) (A) (A)
                 (A) (B) (B) (B) (B) (A) (B) (B) (B) (B) (B) (A)
                 (A) (A) (A) (A) (B) (B) (A) (A) (A) (A) (A) (B)
                 (B) (A) (A) (B) (A) (B) (B) (A) (A) (A) (A) (B)
                 (B) (B) (B) (B) (A) (A) (B) (B) (A) (B) (B) (B)
                 (A) (A) (B) (B) (A) (A) (A) (B) (A) (B) (B) (B)
                 (B) (A) (A) (A) (A) (B) (A) (A) (A) (B) (B) (B)
                 (B) (A) (B) (A) (A) (B) (B) (A) (A) (A) (B) (B)
                 (A) (B) (B) (B) (B) (B) (A) (A) (A) (A) (A) (B)
                 (B) (B) (B) (A) (A) (A) (A) (B) (A) (A) (A) (A)
                 (B) (B) (B) (A) (B) (B) (B) (B) (B) (B) (A) (A)
                 (A) (A) (A) (B) (B) (B) (A) (B) (A) (A) (B) (A)
                 (A) (A) (B) (B) (B) (A) (A) (B) (B) (A) (B) (A)
                 (A) (B) (A) (A) (B) (B) (A) (B) (A) (A) (A) (B)
                 (B) (B) (A) (B) (B) (A) (B) (B) (A) (A) (B) (A)
                 (A) (A) (B) (B) (A) (B) (B) (A) (B) (B) (A) (A)
                 (B) (A) (A) (B) (B) (B) (A) (A) (B) (B) (B) (A)
                 (B) (A) (B) (B) (A) (A) (A) (A) (A) (B) (B) (B)
                 (A) (B) (B) (B) (A) (B) (A) (A) (A) (A) (A) (B)
                 (B) (A) (A) (B) (B) (B) (B) (A) (A) (B) (B) (A)
                 (A) (B) (A) (A) (B) (A) (A) (A) (B) (B) (B) (A)
                 (B) (A) (A) (B) (B) (B) (A) (A) (B) (A) (A) (A)
                 (B) (B) (B) (B) (B) (B) (A) (A) (B) (B) (B) (A)
                 (A) (A) (A) (B) (B) (A) (A) (B) (B) (B) (A) (A)
                 (A) (A) (B) (B) (B) (B) (A) (A) (A) (A) (B) (B)
                 (A) (A) (B) (B) (B) (A) (A) (A) (B) (B) (B) (B)
                 (A) (B) (A) (A) (A) (A) (B) (B) (B) (A) (A) (A)
                 (A) (A) (B) (B) (A) (B) (B) (A) (A) (A) (B) (B)
                 (B) (B) (A) (B) (B) (A) (A) (A) (A) (B) (A) (B)
                 (B) (A) (A) (B) (B) (B) (A) (A) (A) (B) (A) (B)
                 (A) (A) (B) (A) (B) (B) (B) (A) (A) (B) (B) (A)
                 (B) (B) (B) (A) (A) (B) (A) (A) (B) (B) (A) (A)
                 (A) (A) (B) (B) (B) (B) (B) (B) (A) (A) (A) (B)
                 (A) (A) (B) (B) (A) (A) (A) (B) (B) (B) (A) (A)
                 (A) (B) (B) (B) (A) (B) (A) (A) (B) (B) (A) (B)
                 (B) (A) (A) (B) (A) (A) (B) (B) (A) (A) (B) (A)
                 (B) (B) (A) (A) (B) (A) (B) (B) (A) (A) (B) (A)
                 (A) (B) (B) (A) (B)
 Beta  Orbitals:
       Occupied  (A) (B) (B) (A) (B) (A) (B) (A) (B) (A) (A) (B)
                 (A) (B) (B) (A) (B) (A) (B) (A) (B) (A) (B) (A)
                 (A) (B) (B) (A) (A) (A) (B) (B) (B) (B) (A) (A)
                 (A) (A) (B) (B) (A) (A) (B) (B) (B) (B) (A) (A)
                 (A) (B) (B) (A) (A) (A) (A) (B) (B) (B) (A) (A)
                 (A) (B) (B) (A) (B) (B) (B) (B) (A) (A) (A) (A)
                 (A) (B) (B) (B) (B) (A) (A)
       Virtual   (B) (B) (A) (A) (A) (A) (B) (B) (A) (A) (A) (B)
                 (B) (B) (A) (B) (A) (B) (A) (A) (B) (B) (B) (B)
                 (A) (A) (A) (B) (B) (A) (A) (A) (A) (B) (B) (B)
                 (B) (A) (A) (A) (A) (B) (B) (B) (B) (A) (A) (A)
                 (A) (B) (B) (B) (B) (A) (B) (B) (B) (B) (B) (A)
                 (A) (A) (A) (A) (B) (B) (A) (A) (A) (A) (A) (B)
                 (B) (A) (A) (B) (A) (B) (B) (A) (A) (A) (A) (B)
                 (B) (B) (B) (B) (A) (A) (B) (B) (A) (B) (B) (B)
                 (A) (A) (B) (B) (A) (A) (A) (B) (A) (B) (B) (B)
                 (B) (A) (A) (A) (A) (B) (A) (A) (A) (B) (B) (B)
                 (B) (A) (B) (A) (A) (B) (B) (A) (A) (A) (B) (B)
                 (A) (B) (B) (B) (B) (B) (A) (A) (A) (A) (A) (B)
                 (B) (B) (B) (A) (A) (A) (A) (B) (A) (A) (A) (A)
                 (B) (B) (B) (A) (B) (B) (B) (B) (B) (B) (A) (A)
                 (A) (A) (A) (B) (B) (B) (A) (B) (A) (A) (B) (A)
                 (A) (A) (B) (B) (B) (A) (A) (B) (B) (A) (B) (A)
                 (A) (B) (A) (A) (B) (B) (A) (B) (A) (A) (A) (B)
                 (B) (B) (A) (B) (B) (A) (B) (B) (A) (A) (B) (A)
                 (A) (A) (B) (B) (A) (B) (B) (A) (B) (B) (A) (A)
                 (B) (A) (A) (B) (B) (B) (A) (A) (B) (B) (B) (A)
                 (B) (A) (B) (B) (A) (A) (A) (A) (A) (B) (B) (B)
                 (A) (B) (B) (B) (A) (B) (A) (A) (A) (A) (A) (B)
                 (B) (A) (A) (B) (B) (B) (B) (A) (A) (B) (B) (A)
                 (A) (B) (A) (A) (B) (A) (A) (A) (B) (B) (B) (A)
                 (B) (A) (A) (B) (B) (B) (A) (A) (B) (A) (A) (A)
                 (B) (B) (B) (B) (B) (B) (A) (A) (B) (B) (B) (A)
                 (A) (A) (A) (B) (B) (A) (A) (B) (B) (B) (A) (A)
                 (A) (A) (B) (B) (B) (B) (A) (A) (A) (A) (B) (B)
                 (A) (A) (B) (B) (B) (A) (A) (A) (B) (B) (B) (B)
                 (A) (B) (A) (A) (A) (A) (B) (B) (B) (A) (A) (A)
                 (A) (A) (B) (B) (A) (B) (B) (A) (A) (A) (B) (B)
                 (B) (B) (A) (B) (B) (A) (A) (A) (A) (B) (A) (B)
                 (B) (A) (A) (B) (B) (B) (A) (A) (A) (B) (A) (B)
                 (A) (A) (B) (A) (B) (B) (B) (A) (A) (B) (B) (A)
                 (B) (B) (B) (A) (A) (B) (A) (A) (B) (B) (A) (A)
                 (A) (A) (B) (B) (B) (B) (B) (B) (A) (A) (A) (B)
                 (A) (A) (B) (B) (A) (A) (A) (B) (B) (B) (A) (A)
                 (A) (B) (B) (B) (A) (B) (A) (A) (B) (B) (A) (B)
                 (B) (A) (A) (B) (A) (A) (B) (B) (A) (A) (B) (A)
                 (B) (B) (A) (A) (B) (A) (B) (B) (A) (A) (B) (A)
                 (A) (B) (B) (A) (B)
 Initial guess <Sx>= 0.0000 <Sy>= 0.0000 <Sz>= 0.0000 <S**2>= 0.0000 S= 0.0000
 Requested convergence on RMS density matrix=1.00D-08 within 128 cycles.
 Requested convergence on MAX density matrix=1.00D-06.
 Requested convergence on             energy=1.00D-06.
 No special actions if energy rises.
 SCF Done:  E(UB3LYP) =  -923.361411040     A.U. after    3 cycles
            NFock=  3  Conv=0.73D-08     -V/T= 2.0044
 <Sx>= 0.0000 <Sy>= 0.0000 <Sz>= 0.0000 <S**2>= 0.0000 S= 0.0000
 <L.S>= 0.000000000000E+00
 Annihilation of the first spin contaminant:
 S**2 before annihilation     0.0000,   after     0.0000
 DoSCS=F DFT=T ScalE2(SS,OS)=  1.000000  1.000000
 Range of M.O.s used for correlation:     1   564
 NBasis=   584 NAE=    79 NBE=    79 NFC=     0 NFV=     0
 NROrb=    564 NOA=    79 NOB=    79 NVA=   485 NVB=   485

 **** Warning!!: The largest alpha MO coefficient is  0.11639755D+03


 **** Warning!!: The largest beta MO coefficient is  0.11639755D+03

 Symmetrizing basis deriv contribution to polar:
 IMax=3 JMax=2 DiffMx= 0.00D+00
 G2DrvN: will do    39 centers at a time, making    1 passes.
 Calling FoFCou, ICntrl=  3107 FMM=F I1Cent=   0 AccDes= 0.00D+00.
 End of G2Drv F.D. properties file   721 does not exist.
 End of G2Drv F.D. properties file   722 does not exist.
 End of G2Drv F.D. properties file   788 does not exist.
          IDoAtm=11111111111111111111111111111111111111
          Differentiating once with respect to electric field.
                with respect to dipole field.
          Differentiating once with respect to nuclear coordinates.
          There are    60 degrees of freedom in the 1st order CPHF.  IDoFFX=4 NUNeed=    60.
     60 vectors produced by pass  0 Test12= 1.28D-13 1.67D-09 XBig12= 1.85D+03 1.77D+01.
 AX will form    60 AO Fock derivatives at one time.
     60 vectors produced by pass  1 Test12= 1.28D-13 1.67D-09 XBig12= 4.72D+02 2.18D+00.
     60 vectors produced by pass  2 Test12= 1.28D-13 1.67D-09 XBig12= 3.15D+01 4.37D-01.
     60 vectors produced by pass  3 Test12= 1.28D-13 1.67D-09 XBig12= 9.56D-01 7.29D-02.
     60 vectors produced by pass  4 Test12= 1.28D-13 1.67D-09 XBig12= 1.05D-02 7.24D-03.
     60 vectors produced by pass  5 Test12= 1.28D-13 1.67D-09 XBig12= 4.78D-05 4.19D-04.
     53 vectors produced by pass  6 Test12= 1.28D-13 1.67D-09 XBig12= 1.44D-07 1.84D-05.
     18 vectors produced by pass  7 Test12= 1.28D-13 1.67D-09 XBig12= 4.18D-10 1.16D-06.
     18 vectors produced by pass  8 Test12= 1.28D-13 1.67D-09 XBig12= 3.58D-11 5.08D-07.
     18 vectors produced by pass  9 Test12= 1.28D-13 1.67D-09 XBig12= 2.81D-12 1.71D-07.
     18 vectors produced by pass 10 Test12= 1.28D-13 1.67D-09 XBig12= 2.21D-13 6.60D-08.
     18 vectors produced by pass 11 Test12= 1.28D-13 1.67D-09 XBig12= 3.40D-12 1.87D-07.
     18 vectors produced by pass 12 Test12= 1.28D-13 1.67D-09 XBig12= 5.72D-13 6.46D-08.
     18 vectors produced by pass 13 Test12= 1.28D-13 1.67D-09 XBig12= 1.53D-12 1.08D-07.
     18 vectors produced by pass 14 Test12= 1.28D-13 1.67D-09 XBig12= 5.63D-13 5.53D-08.
     18 vectors produced by pass 15 Test12= 1.28D-13 1.67D-09 XBig12= 4.81D-13 4.70D-08.
     18 vectors produced by pass 16 Test12= 1.28D-13 1.67D-09 XBig12= 5.14D-13 4.45D-08.
     18 vectors produced by pass 17 Test12= 1.28D-13 1.67D-09 XBig12= 2.38D-13 3.54D-08.
     18 vectors produced by pass 18 Test12= 1.28D-13 1.67D-09 XBig12= 4.18D-13 4.11D-08.
     18 vectors produced by pass 19 Test12= 1.28D-13 1.67D-09 XBig12= 6.58D-13 4.70D-08.
     17 vectors produced by pass 20 Test12= 1.28D-13 1.67D-09 XBig12= 1.60D-13 2.47D-08.
     17 vectors produced by pass 21 Test12= 1.28D-13 1.67D-09 XBig12= 2.68D-13 2.83D-08.
     17 vectors produced by pass 22 Test12= 1.28D-13 1.67D-09 XBig12= 1.90D-13 2.52D-08.
     17 vectors produced by pass 23 Test12= 1.28D-13 1.67D-09 XBig12= 6.05D-13 4.58D-08.
     17 vectors produced by pass 24 Test12= 1.28D-13 1.67D-09 XBig12= 4.47D-13 4.12D-08.
     17 vectors produced by pass 25 Test12= 1.28D-13 1.67D-09 XBig12= 3.94D-13 4.78D-08.
     17 vectors produced by pass 26 Test12= 1.28D-13 1.67D-09 XBig12= 2.76D-13 3.00D-08.
     17 vectors produced by pass 27 Test12= 1.28D-13 1.67D-09 XBig12= 4.24D-13 3.42D-08.
     17 vectors produced by pass 28 Test12= 1.28D-13 1.67D-09 XBig12= 4.01D-13 3.31D-08.
     17 vectors produced by pass 29 Test12= 1.28D-13 1.67D-09 XBig12= 2.63D-13 2.71D-08.
     17 vectors produced by pass 30 Test12= 1.28D-13 1.67D-09 XBig12= 3.03D-13 2.67D-08.
     17 vectors produced by pass 31 Test12= 1.28D-13 1.67D-09 XBig12= 4.08D-13 3.16D-08.
     13 vectors produced by pass 32 Test12= 1.28D-13 1.67D-09 XBig12= 1.78D-13 2.21D-08.
     13 vectors produced by pass 33 Test12= 1.28D-13 1.67D-09 XBig12= 1.48D-13 2.13D-08.
     13 vectors produced by pass 34 Test12= 1.28D-13 1.67D-09 XBig12= 3.43D-13 3.27D-08.
     13 vectors produced by pass 35 Test12= 1.28D-13 1.67D-09 XBig12= 2.26D-13 2.34D-08.
     13 vectors produced by pass 36 Test12= 1.28D-13 1.67D-09 XBig12= 2.31D-13 2.40D-08.
     13 vectors produced by pass 37 Test12= 1.28D-13 1.67D-09 XBig12= 2.96D-13 2.75D-08.
     13 vectors produced by pass 38 Test12= 1.28D-13 1.67D-09 XBig12= 2.12D-13 2.89D-08.
     13 vectors produced by pass 39 Test12= 1.28D-13 1.67D-09 XBig12= 2.32D-13 2.20D-08.
     13 vectors produced by pass 40 Test12= 1.28D-13 1.67D-09 XBig12= 2.57D-13 3.05D-08.
     12 vectors produced by pass 41 Test12= 1.28D-13 1.67D-09 XBig12= 1.02D-13 1.57D-08.
     12 vectors produced by pass 42 Test12= 1.28D-13 1.67D-09 XBig12= 1.30D-13 1.78D-08.
     12 vectors produced by pass 43 Test12= 1.28D-13 1.67D-09 XBig12= 1.17D-13 1.71D-08.
     12 vectors produced by pass 44 Test12= 1.28D-13 1.67D-09 XBig12= 1.81D-13 2.19D-08.
     12 vectors produced by pass 45 Test12= 1.28D-13 1.67D-09 XBig12= 1.36D-13 2.12D-08.
     12 vectors produced by pass 46 Test12= 1.28D-13 1.67D-09 XBig12= 2.12D-13 2.51D-08.
     12 vectors produced by pass 47 Test12= 1.28D-13 1.67D-09 XBig12= 1.40D-13 1.49D-08.
     12 vectors produced by pass 48 Test12= 1.28D-13 1.67D-09 XBig12= 1.63D-13 2.29D-08.
     12 vectors produced by pass 49 Test12= 1.28D-13 1.67D-09 XBig12= 1.86D-13 2.08D-08.
     12 vectors produced by pass 50 Test12= 1.28D-13 1.67D-09 XBig12= 1.71D-13 2.07D-08.
     12 vectors produced by pass 51 Test12= 1.28D-13 1.67D-09 XBig12= 8.65D-14 1.38D-08.
     12 vectors produced by pass 52 Test12= 1.28D-13 1.67D-09 XBig12= 1.67D-13 1.95D-08.
     12 vectors produced by pass 53 Test12= 1.28D-13 1.67D-09 XBig12= 1.32D-13 1.84D-08.
     12 vectors produced by pass 54 Test12= 1.28D-13 1.67D-09 XBig12= 1.74D-13 2.07D-08.
     12 vectors produced by pass 55 Test12= 1.28D-13 1.67D-09 XBig12= 2.77D-13 2.54D-08.
     12 vectors produced by pass 56 Test12= 1.28D-13 1.67D-09 XBig12= 1.16D-13 1.58D-08.
     12 vectors produced by pass 57 Test12= 1.28D-13 1.67D-09 XBig12= 2.29D-13 2.22D-08.
     11 vectors produced by pass 58 Test12= 1.28D-13 1.67D-09 XBig12= 7.06D-14 1.19D-08.
     11 vectors produced by pass 59 Test12= 1.28D-13 1.67D-09 XBig12= 2.17D-13 2.16D-08.
     11 vectors produced by pass 60 Test12= 1.28D-13 1.67D-09 XBig12= 1.17D-13 1.83D-08.
     11 vectors produced by pass 61 Test12= 1.28D-13 1.67D-09 XBig12= 1.63D-13 1.62D-08.
     11 vectors produced by pass 62 Test12= 1.28D-13 1.67D-09 XBig12= 1.25D-13 1.55D-08.
     11 vectors produced by pass 63 Test12= 1.28D-13 1.67D-09 XBig12= 1.30D-13 1.49D-08.
     11 vectors produced by pass 64 Test12= 1.28D-13 1.67D-09 XBig12= 1.54D-13 1.71D-08.
     11 vectors produced by pass 65 Test12= 1.28D-13 1.67D-09 XBig12= 9.91D-14 1.45D-08.
     11 vectors produced by pass 66 Test12= 1.28D-13 1.67D-09 XBig12= 1.18D-13 1.48D-08.
     10 vectors produced by pass 67 Test12= 1.28D-13 1.67D-09 XBig12= 4.46D-14 9.89D-09.
     10 vectors produced by pass 68 Test12= 1.28D-13 1.67D-09 XBig12= 1.04D-13 1.43D-08.
     10 vectors produced by pass 69 Test12= 1.28D-13 1.67D-09 XBig12= 1.59D-13 1.75D-08.
     10 vectors produced by pass 70 Test12= 1.28D-13 1.67D-09 XBig12= 1.02D-13 1.27D-08.
     10 vectors produced by pass 71 Test12= 1.28D-13 1.67D-09 XBig12= 1.12D-13 1.47D-08.
     10 vectors produced by pass 72 Test12= 1.28D-13 1.67D-09 XBig12= 1.14D-13 1.39D-08.
     10 vectors produced by pass 73 Test12= 1.28D-13 1.67D-09 XBig12= 7.99D-14 1.23D-08.
     10 vectors produced by pass 74 Test12= 1.28D-13 1.67D-09 XBig12= 9.04D-14 1.27D-08.
     10 vectors produced by pass 75 Test12= 1.28D-13 1.67D-09 XBig12= 7.73D-14 1.33D-08.
     10 vectors produced by pass 76 Test12= 1.28D-13 1.67D-09 XBig12= 6.96D-14 1.07D-08.
     10 vectors produced by pass 77 Test12= 1.28D-13 1.67D-09 XBig12= 9.21D-14 1.37D-08.
     10 vectors produced by pass 78 Test12= 1.28D-13 1.67D-09 XBig12= 1.27D-13 1.52D-08.
     10 vectors produced by pass 79 Test12= 1.28D-13 1.67D-09 XBig12= 7.49D-14 1.27D-08.
     10 vectors produced by pass 80 Test12= 1.28D-13 1.67D-09 XBig12= 9.43D-14 1.59D-08.
     10 vectors produced by pass 81 Test12= 1.28D-13 1.67D-09 XBig12= 1.00D-13 1.26D-08.
     10 vectors produced by pass 82 Test12= 1.28D-13 1.67D-09 XBig12= 5.93D-14 1.05D-08.
     10 vectors produced by pass 83 Test12= 1.28D-13 1.67D-09 XBig12= 4.82D-14 1.03D-08.
     10 vectors produced by pass 84 Test12= 1.28D-13 1.67D-09 XBig12= 9.16D-14 1.30D-08.
     10 vectors produced by pass 85 Test12= 1.28D-13 1.67D-09 XBig12= 5.22D-14 9.75D-09.
     10 vectors produced by pass 86 Test12= 1.28D-13 1.67D-09 XBig12= 6.92D-14 1.16D-08.
     10 vectors produced by pass 87 Test12= 1.28D-13 1.67D-09 XBig12= 5.93D-14 1.04D-08.
     10 vectors produced by pass 88 Test12= 1.28D-13 1.67D-09 XBig12= 8.98D-14 1.29D-08.
     10 vectors produced by pass 89 Test12= 1.28D-13 1.67D-09 XBig12= 1.30D-13 1.30D-08.
     10 vectors produced by pass 90 Test12= 1.28D-13 1.67D-09 XBig12= 7.38D-14 1.23D-08.
     10 vectors produced by pass 91 Test12= 1.28D-13 1.67D-09 XBig12= 6.81D-14 1.12D-08.
     10 vectors produced by pass 92 Test12= 1.28D-13 1.67D-09 XBig12= 4.15D-14 1.09D-08.
     10 vectors produced by pass 93 Test12= 1.28D-13 1.67D-09 XBig12= 8.01D-14 1.22D-08.
     10 vectors produced by pass 94 Test12= 1.28D-13 1.67D-09 XBig12= 7.95D-14 1.13D-08.
     10 vectors produced by pass 95 Test12= 1.28D-13 1.67D-09 XBig12= 4.48D-14 8.58D-09.
     10 vectors produced by pass 96 Test12= 1.28D-13 1.67D-09 XBig12= 5.37D-14 9.78D-09.
     10 vectors produced by pass 97 Test12= 1.28D-13 1.67D-09 XBig12= 9.90D-14 1.34D-08.
      9 vectors produced by pass 98 Test12= 1.28D-13 1.67D-09 XBig12= 5.41D-14 8.55D-09.
      9 vectors produced by pass 99 Test12= 1.28D-13 1.67D-09 XBig12= 8.03D-14 1.23D-08.
      9 vectors produced by pass100 Test12= 1.28D-13 1.67D-09 XBig12= 5.77D-14 9.49D-09.
      9 vectors produced by pass101 Test12= 1.28D-13 1.67D-09 XBig12= 7.98D-14 1.51D-08.
      9 vectors produced by pass102 Test12= 1.28D-13 1.67D-09 XBig12= 6.64D-14 1.32D-08.
      9 vectors produced by pass103 Test12= 1.28D-13 1.67D-09 XBig12= 7.58D-14 9.56D-09.
      9 vectors produced by pass104 Test12= 1.28D-13 1.67D-09 XBig12= 5.54D-14 1.08D-08.
      9 vectors produced by pass105 Test12= 1.28D-13 1.67D-09 XBig12= 9.90D-14 1.38D-08.
      9 vectors produced by pass106 Test12= 1.28D-13 1.67D-09 XBig12= 6.87D-14 1.08D-08.
      9 vectors produced by pass107 Test12= 1.28D-13 1.67D-09 XBig12= 6.35D-14 9.71D-09.
      9 vectors produced by pass108 Test12= 1.28D-13 1.67D-09 XBig12= 6.45D-14 1.23D-08.
      9 vectors produced by pass109 Test12= 1.28D-13 1.67D-09 XBig12= 6.98D-14 1.03D-08.
      9 vectors produced by pass110 Test12= 1.28D-13 1.67D-09 XBig12= 7.96D-14 1.10D-08.
      8 vectors produced by pass111 Test12= 1.28D-13 1.67D-09 XBig12= 4.51D-14 9.32D-09.
      8 vectors produced by pass112 Test12= 1.28D-13 1.67D-09 XBig12= 7.43D-14 1.17D-08.
      5 vectors produced by pass113 Test12= 1.28D-13 1.67D-09 XBig12= 3.14D-14 7.17D-09.
      5 vectors produced by pass114 Test12= 1.28D-13 1.67D-09 XBig12= 6.85D-14 1.12D-08.
      5 vectors produced by pass115 Test12= 1.28D-13 1.67D-09 XBig12= 8.75D-14 1.40D-08.
      5 vectors produced by pass116 Test12= 1.28D-13 1.67D-09 XBig12= 7.67D-14 1.07D-08.
      5 vectors produced by pass117 Test12= 1.28D-13 1.67D-09 XBig12= 9.03D-14 1.14D-08.
      5 vectors produced by pass118 Test12= 1.28D-13 1.67D-09 XBig12= 4.42D-14 1.02D-08.
      5 vectors produced by pass119 Test12= 1.28D-13 1.67D-09 XBig12= 6.33D-14 1.20D-08.
      5 vectors produced by pass120 Test12= 1.28D-13 1.67D-09 XBig12= 7.38D-14 9.69D-09.
      5 vectors produced by pass121 Test12= 1.28D-13 1.67D-09 XBig12= 8.72D-14 1.16D-08.
      5 vectors produced by pass122 Test12= 1.28D-13 1.67D-09 XBig12= 3.35D-14 7.22D-09.
      5 vectors produced by pass123 Test12= 1.28D-13 1.67D-09 XBig12= 5.69D-14 1.02D-08.
      5 vectors produced by pass124 Test12= 1.28D-13 1.67D-09 XBig12= 8.67D-14 1.23D-08.
      5 vectors produced by pass125 Test12= 1.28D-13 1.67D-09 XBig12= 5.74D-14 8.75D-09.
      5 vectors produced by pass126 Test12= 1.28D-13 1.67D-09 XBig12= 4.48D-14 8.58D-09.
      5 vectors produced by pass127 Test12= 1.28D-13 1.67D-09 XBig12= 3.82D-14 8.97D-09.
      5 vectors produced by pass128 Test12= 1.28D-13 1.67D-09 XBig12= 3.84D-14 9.07D-09.
      5 vectors produced by pass129 Test12= 1.28D-13 1.67D-09 XBig12= 2.90D-14 6.82D-09.
      5 vectors produced by pass130 Test12= 1.28D-13 1.67D-09 XBig12= 3.94D-14 7.47D-09.
      5 vectors produced by pass131 Test12= 1.28D-13 1.67D-09 XBig12= 6.07D-14 9.51D-09.
      5 vectors produced by pass132 Test12= 1.28D-13 1.67D-09 XBig12= 6.61D-14 9.88D-09.
      5 vectors produced by pass133 Test12= 1.28D-13 1.67D-09 XBig12= 5.56D-14 9.43D-09.
      5 vectors produced by pass134 Test12= 1.28D-13 1.67D-09 XBig12= 5.64D-14 1.03D-08.
      5 vectors produced by pass135 Test12= 1.28D-13 1.67D-09 XBig12= 3.15D-14 7.16D-09.
      5 vectors produced by pass136 Test12= 1.28D-13 1.67D-09 XBig12= 5.04D-14 1.01D-08.
      5 vectors produced by pass137 Test12= 1.28D-13 1.67D-09 XBig12= 5.63D-14 9.47D-09.
      5 vectors produced by pass138 Test12= 1.28D-13 1.67D-09 XBig12= 8.04D-14 1.09D-08.
      5 vectors produced by pass139 Test12= 1.28D-13 1.67D-09 XBig12= 5.34D-14 9.26D-09.
      5 vectors produced by pass140 Test12= 1.28D-13 1.67D-09 XBig12= 3.39D-14 6.31D-09.
      5 vectors produced by pass141 Test12= 1.28D-13 1.67D-09 XBig12= 5.22D-14 8.01D-09.
      5 vectors produced by pass142 Test12= 1.28D-13 1.67D-09 XBig12= 6.55D-14 9.98D-09.
      5 vectors produced by pass143 Test12= 1.28D-13 1.67D-09 XBig12= 2.91D-14 6.90D-09.
      5 vectors produced by pass144 Test12= 1.28D-13 1.67D-09 XBig12= 7.36D-14 1.14D-08.
      5 vectors produced by pass145 Test12= 1.28D-13 1.67D-09 XBig12= 5.00D-14 9.12D-09.
      5 vectors produced by pass146 Test12= 1.28D-13 1.67D-09 XBig12= 4.75D-14 8.63D-09.
      5 vectors produced by pass147 Test12= 1.28D-13 1.67D-09 XBig12= 5.65D-14 1.03D-08.
      5 vectors produced by pass148 Test12= 1.28D-13 1.67D-09 XBig12= 3.99D-14 8.67D-09.
      5 vectors produced by pass149 Test12= 1.28D-13 1.67D-09 XBig12= 3.57D-14 7.47D-09.
      5 vectors produced by pass150 Test12= 1.28D-13 1.67D-09 XBig12= 5.68D-14 8.78D-09.
      5 vectors produced by pass151 Test12= 1.28D-13 1.67D-09 XBig12= 2.91D-14 5.77D-09.
      5 vectors produced by pass152 Test12= 1.28D-13 1.67D-09 XBig12= 3.21D-14 7.55D-09.
      5 vectors produced by pass153 Test12= 1.28D-13 1.67D-09 XBig12= 5.21D-14 8.78D-09.
      5 vectors produced by pass154 Test12= 1.28D-13 1.67D-09 XBig12= 2.78D-14 6.36D-09.
      5 vectors produced by pass155 Test12= 1.28D-13 1.67D-09 XBig12= 6.18D-14 9.96D-09.
      5 vectors produced by pass156 Test12= 1.28D-13 1.67D-09 XBig12= 5.20D-14 8.07D-09.
      5 vectors produced by pass157 Test12= 1.28D-13 1.67D-09 XBig12= 2.33D-14 5.87D-09.
      5 vectors produced by pass158 Test12= 1.28D-13 1.67D-09 XBig12= 4.81D-14 1.09D-08.
      5 vectors produced by pass159 Test12= 1.28D-13 1.67D-09 XBig12= 4.38D-14 7.88D-09.
      5 vectors produced by pass160 Test12= 1.28D-13 1.67D-09 XBig12= 5.07D-14 8.62D-09.
      5 vectors produced by pass161 Test12= 1.28D-13 1.67D-09 XBig12= 2.80D-14 6.08D-09.
      5 vectors produced by pass162 Test12= 1.28D-13 1.67D-09 XBig12= 5.62D-14 1.06D-08.
      5 vectors produced by pass163 Test12= 1.28D-13 1.67D-09 XBig12= 3.60D-14 8.52D-09.
      5 vectors produced by pass164 Test12= 1.28D-13 1.67D-09 XBig12= 3.51D-14 6.88D-09.
      5 vectors produced by pass165 Test12= 1.28D-13 1.67D-09 XBig12= 5.62D-14 8.93D-09.
      5 vectors produced by pass166 Test12= 1.28D-13 1.67D-09 XBig12= 3.87D-14 8.10D-09.
      5 vectors produced by pass167 Test12= 1.28D-13 1.67D-09 XBig12= 4.15D-14 7.65D-09.
      5 vectors produced by pass168 Test12= 1.28D-13 1.67D-09 XBig12= 3.42D-14 6.47D-09.
      5 vectors produced by pass169 Test12= 1.28D-13 1.67D-09 XBig12= 3.17D-14 6.78D-09.
      5 vectors produced by pass170 Test12= 1.28D-13 1.67D-09 XBig12= 3.59D-14 6.78D-09.
      5 vectors produced by pass171 Test12= 1.28D-13 1.67D-09 XBig12= 5.53D-14 8.87D-09.
      5 vectors produced by pass172 Test12= 1.28D-13 1.67D-09 XBig12= 3.59D-14 7.96D-09.
      5 vectors produced by pass173 Test12= 1.28D-13 1.67D-09 XBig12= 6.03D-14 1.00D-08.
      5 vectors produced by pass174 Test12= 1.28D-13 1.67D-09 XBig12= 4.33D-14 8.92D-09.
      5 vectors produced by pass175 Test12= 1.28D-13 1.67D-09 XBig12= 2.96D-14 6.70D-09.
      5 vectors produced by pass176 Test12= 1.28D-13 1.67D-09 XBig12= 2.22D-14 5.92D-09.
      5 vectors produced by pass177 Test12= 1.28D-13 1.67D-09 XBig12= 3.68D-14 7.47D-09.
      5 vectors produced by pass178 Test12= 1.28D-13 1.67D-09 XBig12= 4.53D-14 7.50D-09.
      5 vectors produced by pass179 Test12= 1.28D-13 1.67D-09 XBig12= 4.10D-14 7.81D-09.
      5 vectors produced by pass180 Test12= 1.28D-13 1.67D-09 XBig12= 4.39D-14 8.05D-09.
      5 vectors produced by pass181 Test12= 1.28D-13 1.67D-09 XBig12= 2.11D-14 5.38D-09.
      5 vectors produced by pass182 Test12= 1.28D-13 1.67D-09 XBig12= 3.37D-14 6.60D-09.
      5 vectors produced by pass183 Test12= 1.28D-13 1.67D-09 XBig12= 4.27D-14 7.45D-09.
      5 vectors produced by pass184 Test12= 1.28D-13 1.67D-09 XBig12= 3.79D-14 1.00D-08.
      5 vectors produced by pass185 Test12= 1.28D-13 1.67D-09 XBig12= 2.76D-14 6.66D-09.
      5 vectors produced by pass186 Test12= 1.28D-13 1.67D-09 XBig12= 2.40D-14 4.98D-09.
      5 vectors produced by pass187 Test12= 1.28D-13 1.67D-09 XBig12= 3.74D-14 8.14D-09.
      5 vectors produced by pass188 Test12= 1.28D-13 1.67D-09 XBig12= 1.76D-14 4.98D-09.
      5 vectors produced by pass189 Test12= 1.28D-13 1.67D-09 XBig12= 4.38D-14 7.64D-09.
      5 vectors produced by pass190 Test12= 1.28D-13 1.67D-09 XBig12= 2.55D-14 5.93D-09.
      5 vectors produced by pass191 Test12= 1.28D-13 1.67D-09 XBig12= 3.27D-14 6.59D-09.
      5 vectors produced by pass192 Test12= 1.28D-13 1.67D-09 XBig12= 2.82D-14 6.28D-09.
      5 vectors produced by pass193 Test12= 1.28D-13 1.67D-09 XBig12= 3.01D-14 6.41D-09.
      5 vectors produced by pass194 Test12= 1.28D-13 1.67D-09 XBig12= 2.20D-14 5.54D-09.
      5 vectors produced by pass195 Test12= 1.28D-13 1.67D-09 XBig12= 2.22D-14 5.25D-09.
      5 vectors produced by pass196 Test12= 1.28D-13 1.67D-09 XBig12= 2.75D-14 6.22D-09.
      5 vectors produced by pass197 Test12= 1.28D-13 1.67D-09 XBig12= 2.77D-14 5.93D-09.
      5 vectors produced by pass198 Test12= 1.28D-13 1.67D-09 XBig12= 3.03D-14 7.12D-09.
      5 vectors produced by pass199 Test12= 1.28D-13 1.67D-09 XBig12= 3.58D-14 7.07D-09.
      5 vectors produced by pass200 Test12= 1.28D-13 1.67D-09 XBig12= 3.85D-14 7.75D-09.
      5 vectors produced by pass201 Test12= 1.28D-13 1.67D-09 XBig12= 3.02D-14 6.83D-09.
      5 vectors produced by pass202 Test12= 1.28D-13 1.67D-09 XBig12= 3.18D-14 7.72D-09.
      5 vectors produced by pass203 Test12= 1.28D-13 1.67D-09 XBig12= 3.47D-14 8.05D-09.
      5 vectors produced by pass204 Test12= 1.28D-13 1.67D-09 XBig12= 2.45D-14 6.96D-09.
      5 vectors produced by pass205 Test12= 1.28D-13 1.67D-09 XBig12= 2.66D-14 6.77D-09.
      4 vectors produced by pass206 Test12= 1.28D-13 1.67D-09 XBig12= 1.72D-14 4.91D-09.
      4 vectors produced by pass207 Test12= 1.28D-13 1.67D-09 XBig12= 2.98D-14 5.95D-09.
      4 vectors produced by pass208 Test12= 1.28D-13 1.67D-09 XBig12= 2.76D-14 7.33D-09.
      4 vectors produced by pass209 Test12= 1.28D-13 1.67D-09 XBig12= 4.35D-14 7.56D-09.
      4 vectors produced by pass210 Test12= 1.28D-13 1.67D-09 XBig12= 2.72D-14 5.88D-09.
      4 vectors produced by pass211 Test12= 1.28D-13 1.67D-09 XBig12= 3.56D-14 6.42D-09.
      4 vectors produced by pass212 Test12= 1.28D-13 1.67D-09 XBig12= 3.43D-14 7.56D-09.
      4 vectors produced by pass213 Test12= 1.28D-13 1.67D-09 XBig12= 2.20D-14 5.41D-09.
      4 vectors produced by pass214 Test12= 1.28D-13 1.67D-09 XBig12= 1.50D-14 5.24D-09.
      4 vectors produced by pass215 Test12= 1.28D-13 1.67D-09 XBig12= 2.46D-14 5.89D-09.
      4 vectors produced by pass216 Test12= 1.28D-13 1.67D-09 XBig12= 2.84D-14 7.08D-09.
      4 vectors produced by pass217 Test12= 1.28D-13 1.67D-09 XBig12= 3.53D-14 6.35D-09.
      4 vectors produced by pass218 Test12= 1.28D-13 1.67D-09 XBig12= 2.82D-14 5.99D-09.
      4 vectors produced by pass219 Test12= 1.28D-13 1.67D-09 XBig12= 3.17D-14 6.13D-09.
      4 vectors produced by pass220 Test12= 1.28D-13 1.67D-09 XBig12= 2.03D-14 5.20D-09.
      4 vectors produced by pass221 Test12= 1.28D-13 1.67D-09 XBig12= 3.26D-14 6.40D-09.
      4 vectors produced by pass222 Test12= 1.28D-13 1.67D-09 XBig12= 1.92D-14 5.21D-09.
      4 vectors produced by pass223 Test12= 1.28D-13 1.67D-09 XBig12= 2.49D-14 5.13D-09.
      4 vectors produced by pass224 Test12= 1.28D-13 1.67D-09 XBig12= 2.70D-14 6.36D-09.
      4 vectors produced by pass225 Test12= 1.28D-13 1.67D-09 XBig12= 2.98D-14 6.10D-09.
      4 vectors produced by pass226 Test12= 1.28D-13 1.67D-09 XBig12= 2.40D-14 5.45D-09.
      4 vectors produced by pass227 Test12= 1.28D-13 1.67D-09 XBig12= 3.14D-14 6.15D-09.
      4 vectors produced by pass228 Test12= 1.28D-13 1.67D-09 XBig12= 2.32D-14 5.52D-09.
      4 vectors produced by pass229 Test12= 1.28D-13 1.67D-09 XBig12= 2.90D-14 6.65D-09.
      4 vectors produced by pass230 Test12= 1.28D-13 1.67D-09 XBig12= 1.50D-14 4.00D-09.
      4 vectors produced by pass231 Test12= 1.28D-13 1.67D-09 XBig12= 3.22D-14 6.55D-09.
      4 vectors produced by pass232 Test12= 1.28D-13 1.67D-09 XBig12= 2.71D-14 5.54D-09.
      4 vectors produced by pass233 Test12= 1.28D-13 1.67D-09 XBig12= 2.15D-14 5.42D-09.
      4 vectors produced by pass234 Test12= 1.28D-13 1.67D-09 XBig12= 1.78D-14 5.03D-09.
      4 vectors produced by pass235 Test12= 1.28D-13 1.67D-09 XBig12= 2.15D-14 5.15D-09.
      4 vectors produced by pass236 Test12= 1.28D-13 1.67D-09 XBig12= 2.33D-14 8.14D-09.
      2 vectors produced by pass237 Test12= 1.28D-13 1.67D-09 XBig12= 1.19D-14 4.76D-09.
 InvSVY:  IOpt=1 It=  1 EMax= 5.68D-14
 Solved reduced A of dimension  2305 with    60 vectors.
 Isotropic polarizability for W=    0.000000      301.54 Bohr**3.
 End of Minotr F.D. properties file   721 does not exist.
 End of Minotr F.D. properties file   722 does not exist.
 End of Minotr F.D. properties file   788 does not exist.

 **********************************************************************

            Population analysis using the SCF density.

 **********************************************************************

 Orbital symmetries:
 Alpha Orbitals:
       Occupied  (A) (B) (B) (A) (B) (A) (B) (A) (B) (A) (A) (B)
                 (A) (B) (B) (A) (B) (A) (B) (A) (B) (A) (B) (A)
                 (A) (B) (B) (A) (A) (A) (B) (B) (B) (B) (A) (A)
                 (A) (A) (B) (B) (A) (A) (B) (B) (B) (B) (A) (A)
                 (A) (B) (B) (A) (A) (A) (A) (B) (B) (B) (A) (A)
                 (A) (B) (B) (A) (B) (B) (B) (B) (A) (A) (A) (A)
                 (A) (B) (B) (B) (B) (A) (A)
       Virtual   (B) (B) (A) (A) (A) (A) (B) (B) (A) (A) (A) (B)
                 (B) (B) (A) (B) (A) (B) (A) (A) (B) (B) (B) (B)
                 (A) (A) (A) (B) (B) (A) (A) (A) (A) (B) (B) (B)
                 (B) (A) (A) (A) (A) (B) (B) (B) (B) (A) (A) (A)
                 (A) (B) (B) (B) (B) (A) (B) (B) (B) (B) (B) (A)
                 (A) (A) (A) (A) (B) (B) (A) (A) (A) (A) (A) (B)
                 (B) (A) (A) (B) (A) (B) (B) (A) (A) (A) (A) (B)
                 (B) (B) (B) (B) (A) (A) (B) (B) (A) (B) (B) (B)
                 (A) (A) (B) (B) (A) (A) (A) (B) (A) (B) (B) (B)
                 (B) (A) (A) (A) (A) (B) (A) (A) (A) (B) (B) (B)
                 (B) (A) (B) (A) (A) (B) (B) (A) (A) (A) (B) (B)
                 (A) (B) (B) (B) (B) (B) (A) (A) (A) (A) (A) (B)
                 (B) (B) (B) (A) (A) (A) (A) (B) (A) (A) (A) (A)
                 (B) (B) (B) (A) (B) (B) (B) (B) (B) (B) (A) (A)
                 (A) (A) (A) (B) (B) (B) (A) (B) (A) (A) (B) (A)
                 (A) (A) (B) (B) (B) (A) (A) (B) (B) (A) (B) (A)
                 (A) (B) (A) (A) (B) (B) (A) (B) (A) (A) (A) (B)
                 (B) (B) (A) (B) (B) (A) (B) (B) (A) (A) (B) (A)
                 (A) (A) (B) (B) (A) (B) (B) (A) (B) (B) (A) (A)
                 (B) (A) (A) (B) (B) (B) (A) (A) (B) (B) (B) (A)
                 (B) (A) (B) (B) (A) (A) (A) (A) (A) (B) (B) (B)
                 (A) (B) (B) (B) (A) (B) (A) (A) (A) (A) (A) (B)
                 (B) (A) (A) (B) (B) (B) (B) (A) (A) (B) (B) (A)
                 (A) (B) (A) (A) (B) (A) (A) (A) (B) (B) (B) (A)
                 (B) (A) (A) (B) (B) (B) (A) (A) (B) (A) (A) (A)
                 (B) (B) (B) (B) (B) (B) (A) (A) (B) (B) (B) (A)
                 (A) (A) (A) (B) (B) (A) (A) (B) (B) (B) (A) (A)
                 (A) (A) (B) (B) (B) (B) (A) (A) (A) (A) (B) (B)
                 (A) (A) (B) (B) (B) (A) (A) (A) (B) (B) (B) (B)
                 (A) (B) (A) (A) (A) (A) (B) (B) (B) (A) (A) (A)
                 (A) (A) (B) (B) (A) (B) (B) (A) (A) (A) (B) (B)
                 (B) (B) (A) (B) (B) (A) (A) (A) (A) (B) (A) (B)
                 (B) (A) (A) (B) (B) (B) (A) (A) (A) (B) (A) (B)
                 (A) (A) (B) (A) (B) (B) (B) (A) (A) (B) (B) (A)
                 (B) (B) (B) (A) (A) (B) (A) (A) (B) (B) (A) (A)
                 (A) (A) (B) (B) (B) (B) (B) (B) (A) (A) (A) (B)
                 (A) (A) (B) (B) (A) (A) (A) (B) (B) (B) (A) (A)
                 (A) (B) (B) (B) (A) (B) (A) (A) (B) (B) (A) (B)
                 (B) (A) (A) (B) (A) (A) (B) (B) (A) (A) (B) (A)
                 (B) (B) (A) (A) (B) (A) (B) (B) (A) (A) (B) (A)
                 (A) (B) (B) (A) (B)
 Beta  Orbitals:
       Occupied  (A) (B) (B) (A) (B) (A) (B) (A) (B) (A) (A) (B)
                 (A) (B) (B) (A) (B) (A) (B) (A) (B) (A) (B) (A)
                 (A) (B) (B) (A) (A) (A) (B) (B) (B) (B) (A) (A)
                 (A) (A) (B) (B) (A) (A) (B) (B) (B) (B) (A) (A)
                 (A) (B) (B) (A) (A) (A) (A) (B) (B) (B) (A) (A)
                 (A) (B) (B) (A) (B) (B) (B) (B) (A) (A) (A) (A)
                 (A) (B) (B) (B) (B) (A) (A)
       Virtual   (B) (B) (A) (A) (A) (A) (B) (B) (A) (A) (A) (B)
                 (B) (B) (A) (B) (A) (B) (A) (A) (B) (B) (B) (B)
                 (A) (A) (A) (B) (B) (A) (A) (A) (A) (B) (B) (B)
                 (B) (A) (A) (A) (A) (B) (B) (B) (B) (A) (A) (A)
                 (A) (B) (B) (B) (B) (A) (B) (B) (B) (B) (B) (A)
                 (A) (A) (A) (A) (B) (B) (A) (A) (A) (A) (A) (B)
                 (B) (A) (A) (B) (A) (B) (B) (A) (A) (A) (A) (B)
                 (B) (B) (B) (B) (A) (A) (B) (B) (A) (B) (B) (B)
                 (A) (A) (B) (B) (A) (A) (A) (B) (A) (B) (B) (B)
                 (B) (A) (A) (A) (A) (B) (A) (A) (A) (B) (B) (B)
                 (B) (A) (B) (A) (A) (B) (B) (A) (A) (A) (B) (B)
                 (A) (B) (B) (B) (B) (B) (A) (A) (A) (A) (A) (B)
                 (B) (B) (B) (A) (A) (A) (A) (B) (A) (A) (A) (A)
                 (B) (B) (B) (A) (B) (B) (B) (B) (B) (B) (A) (A)
                 (A) (A) (A) (B) (B) (B) (A) (B) (A) (A) (B) (A)
                 (A) (A) (B) (B) (B) (A) (A) (B) (B) (A) (B) (A)
                 (A) (B) (A) (A) (B) (B) (A) (B) (A) (A) (A) (B)
                 (B) (B) (A) (B) (B) (A) (B) (B) (A) (A) (B) (A)
                 (A) (A) (B) (B) (A) (B) (B) (A) (B) (B) (A) (A)
                 (B) (A) (A) (B) (B) (B) (A) (A) (B) (B) (B) (A)
                 (B) (A) (B) (B) (A) (A) (A) (A) (A) (B) (B) (B)
                 (A) (B) (B) (B) (A) (B) (A) (A) (A) (A) (A) (B)
                 (B) (A) (A) (B) (B) (B) (B) (A) (A) (B) (B) (A)
                 (A) (B) (A) (A) (B) (A) (A) (A) (B) (B) (B) (A)
                 (B) (A) (A) (B) (B) (B) (A) (A) (B) (A) (A) (A)
                 (B) (B) (B) (B) (B) (B) (A) (A) (B) (B) (B) (A)
                 (A) (A) (A) (B) (B) (A) (A) (B) (B) (B) (A) (A)
                 (A) (A) (B) (B) (B) (B) (A) (A) (A) (A) (B) (B)
                 (A) (A) (B) (B) (B) (A) (A) (A) (B) (B) (B) (B)
                 (A) (B) (A) (A) (A) (A) (B) (B) (B) (A) (A) (A)
                 (A) (A) (B) (B) (A) (B) (B) (A) (A) (A) (B) (B)
                 (B) (B) (A) (B) (B) (A) (A) (A) (A) (B) (A) (B)
                 (B) (A) (A) (B) (B) (B) (A) (A) (A) (B) (A) (B)
                 (A) (A) (B) (A) (B) (B) (B) (A) (A) (B) (B) (A)
                 (B) (B) (B) (A) (A) (B) (A) (A) (B) (B) (A) (A)
                 (A) (A) (B) (B) (B) (B) (B) (B) (A) (A) (A) (B)
                 (A) (A) (B) (B) (A) (A) (A) (B) (B) (B) (A) (A)
                 (A) (B) (B) (B) (A) (B) (A) (A) (B) (B) (A) (B)
                 (B) (A) (A) (B) (A) (A) (B) (B) (A) (A) (B) (A)
                 (B) (B) (A) (A) (B) (A) (B) (B) (A) (A) (B) (A)
                 (A) (B) (B) (A) (B)
 The electronic state is 1-A.
 Alpha  occ. eigenvalues --  -10.19198 -10.19194 -10.19172 -10.19171 -10.19160
 Alpha  occ. eigenvalues --  -10.19157 -10.19143 -10.19143 -10.19125 -10.19111
 Alpha  occ. eigenvalues --  -10.19093 -10.19081 -10.18363 -10.18363 -10.18357
 Alpha  occ. eigenvalues --  -10.18357 -10.18345 -10.18345 -10.18299 -10.18299
 Alpha  occ. eigenvalues --  -10.18293 -10.18293 -10.18281 -10.18281  -0.91475
 Alpha  occ. eigenvalues --   -0.87818  -0.87799  -0.83115  -0.83114  -0.81468
 Alpha  occ. eigenvalues --   -0.78387  -0.76893  -0.75197  -0.75178  -0.72009
 Alpha  occ. eigenvalues --   -0.72005  -0.64349  -0.64346  -0.64014  -0.64012
 Alpha  occ. eigenvalues --   -0.63284  -0.57095  -0.56352  -0.54735  -0.54727
 Alpha  occ. eigenvalues --   -0.54486  -0.52442  -0.48381  -0.48373  -0.46733
 Alpha  occ. eigenvalues --   -0.46726  -0.46403  -0.46398  -0.44999  -0.43639
 Alpha  occ. eigenvalues --   -0.42993  -0.42990  -0.42649  -0.41096  -0.41088
 Alpha  occ. eigenvalues --   -0.40588  -0.39253  -0.39216  -0.38349  -0.38304
 Alpha  occ. eigenvalues --   -0.36906  -0.36895  -0.36891  -0.33823  -0.33820
 Alpha  occ. eigenvalues --   -0.32591  -0.32583  -0.31866  -0.27800  -0.27548
 Alpha  occ. eigenvalues --   -0.26026  -0.25949  -0.21200  -0.21195
 Alpha virt. eigenvalues --   -0.06498  -0.06472  -0.02885  -0.02865  -0.01125
 Alpha virt. eigenvalues --   -0.00755  -0.00253  -0.00221   0.00977   0.00978
 Alpha virt. eigenvalues --    0.01036   0.02549   0.02607   0.03328   0.03456
 Alpha virt. eigenvalues --    0.03885   0.04468   0.04503   0.04608   0.04609
 Alpha virt. eigenvalues --    0.04876   0.05917   0.07253   0.07255   0.07393
 Alpha virt. eigenvalues --    0.07398   0.08390   0.08522   0.09093   0.09406
 Alpha virt. eigenvalues --    0.09492   0.09499   0.09995   0.10132   0.10380
 Alpha virt. eigenvalues --    0.10987   0.11446   0.11581   0.11622   0.11626
 Alpha virt. eigenvalues --    0.11779   0.12145   0.12427   0.12559   0.13369
 Alpha virt. eigenvalues --    0.13568   0.13573   0.14101   0.14104   0.14273
 Alpha virt. eigenvalues --    0.14421   0.14737   0.14844   0.15544   0.15762
 Alpha virt. eigenvalues --    0.16544   0.16716   0.16806   0.17081   0.18314
 Alpha virt. eigenvalues --    0.18342   0.18724   0.18751   0.18830   0.19239
 Alpha virt. eigenvalues --    0.19275   0.19513   0.19521   0.20564   0.20573
 Alpha virt. eigenvalues --    0.21442   0.21988   0.22030   0.22266   0.22276
 Alpha virt. eigenvalues --    0.22456   0.22646   0.22690   0.22716   0.22883
 Alpha virt. eigenvalues --    0.23261   0.23271   0.23716   0.24425   0.24711
 Alpha virt. eigenvalues --    0.24866   0.25775   0.26660   0.27164   0.27170
 Alpha virt. eigenvalues --    0.27560   0.27601   0.27765   0.28618   0.28799
 Alpha virt. eigenvalues --    0.29073   0.29476   0.29480   0.29890   0.29938
 Alpha virt. eigenvalues --    0.30065   0.30208   0.30282   0.30666   0.30692
 Alpha virt. eigenvalues --    0.31387   0.32432   0.32440   0.32507   0.32541
 Alpha virt. eigenvalues --    0.32594   0.33521   0.33541   0.33544   0.34508
 Alpha virt. eigenvalues --    0.34518   0.35537   0.35809   0.36054   0.36421
 Alpha virt. eigenvalues --    0.37264   0.37312   0.38326   0.39326   0.39382
 Alpha virt. eigenvalues --    0.40965   0.40983   0.41964   0.42036   0.42305
 Alpha virt. eigenvalues --    0.42973   0.43009   0.43420   0.43944   0.46815
 Alpha virt. eigenvalues --    0.49780   0.49953   0.49988   0.50474   0.50650
 Alpha virt. eigenvalues --    0.50662   0.51271   0.53548   0.53783   0.55172
 Alpha virt. eigenvalues --    0.55282   0.55816   0.55841   0.55855   0.56136
 Alpha virt. eigenvalues --    0.56158   0.57083   0.57244   0.58916   0.58930
 Alpha virt. eigenvalues --    0.59362   0.59979   0.60172   0.60791   0.61147
 Alpha virt. eigenvalues --    0.61314   0.61469   0.61897   0.62486   0.62610
 Alpha virt. eigenvalues --    0.62815   0.62935   0.62939   0.63399   0.63418
 Alpha virt. eigenvalues --    0.64556   0.64827   0.65102   0.66198   0.66558
 Alpha virt. eigenvalues --    0.67175   0.67255   0.67265   0.67391   0.68612
 Alpha virt. eigenvalues --    0.68643   0.71517   0.73996   0.74153   0.74843
 Alpha virt. eigenvalues --    0.75053   0.75055   0.75937   0.76267   0.76855
 Alpha virt. eigenvalues --    0.77379   0.77829   0.77836   0.78461   0.78494
 Alpha virt. eigenvalues --    0.78498   0.78764   0.79643   0.80324   0.80445
 Alpha virt. eigenvalues --    0.81655   0.83870   0.83879   0.84231   0.85290
 Alpha virt. eigenvalues --    0.85380   0.87358   0.88732   0.90343   0.90670
 Alpha virt. eigenvalues --    0.91201   0.91310   0.91983   0.91994   0.92397
 Alpha virt. eigenvalues --    0.92905   0.94656   0.94695   0.94966   0.95397
 Alpha virt. eigenvalues --    0.95522   0.96182   0.96664   0.96837   0.96967
 Alpha virt. eigenvalues --    0.96969   0.98365   0.98395   0.98400   1.00045
 Alpha virt. eigenvalues --    1.00053   1.00121   1.00782   1.01376   1.01397
 Alpha virt. eigenvalues --    1.01403   1.02415   1.03223   1.04976   1.05484
 Alpha virt. eigenvalues --    1.06486   1.11495   1.11972   1.12929   1.13056
 Alpha virt. eigenvalues --    1.13074   1.15047   1.15083   1.15796   1.16508
 Alpha virt. eigenvalues --    1.17319   1.17568   1.17648   1.17925   1.18537
 Alpha virt. eigenvalues --    1.20702   1.21041   1.21045   1.21045   1.21397
 Alpha virt. eigenvalues --    1.21403   1.32093   1.32102   1.32752   1.32772
 Alpha virt. eigenvalues --    1.33572   1.37189   1.38586   1.43758   1.44052
 Alpha virt. eigenvalues --    1.45442   1.46391   1.46417   1.47085   1.48638
 Alpha virt. eigenvalues --    1.48700   1.48713   1.48859   1.49458   1.50559
 Alpha virt. eigenvalues --    1.50725   1.50926   1.50942   1.53660   1.53826
 Alpha virt. eigenvalues --    1.54444   1.57972   1.58256   1.59183   1.60514
 Alpha virt. eigenvalues --    1.60523   1.61965   1.62531   1.62902   1.67845
 Alpha virt. eigenvalues --    1.67862   1.71624   1.72080   1.72841   1.72857
 Alpha virt. eigenvalues --    1.72913   1.76445   1.78732   1.78735   1.81372
 Alpha virt. eigenvalues --    1.81416   1.82702   1.82713   1.83884   1.84006
 Alpha virt. eigenvalues --    1.87264   1.88320   1.89816   1.89840   1.90200
 Alpha virt. eigenvalues --    1.91694   1.91701   1.93492   1.93502   1.94252
 Alpha virt. eigenvalues --    1.94813   1.95057   1.96937   1.97679   1.99379
 Alpha virt. eigenvalues --    1.99391   2.00966   2.01194   2.02204   2.02255
 Alpha virt. eigenvalues --    2.02464   2.02479   2.02778   2.04012   2.07827
 Alpha virt. eigenvalues --    2.08290   2.13857   2.13865   2.15022   2.16303
 Alpha virt. eigenvalues --    2.16669   2.20612   2.20617   2.24347   2.24370
 Alpha virt. eigenvalues --    2.24387   2.25980   2.26048   2.26324   2.30223
 Alpha virt. eigenvalues --    2.34385   2.34411   2.35236   2.35282   2.38041
 Alpha virt. eigenvalues --    2.40298   2.40406   2.41014   2.46012   2.46684
 Alpha virt. eigenvalues --    2.48126   2.48136   2.50344   2.50829   2.51700
 Alpha virt. eigenvalues --    2.53471   2.54189   2.54927   2.54949   2.60664
 Alpha virt. eigenvalues --    2.62147   2.62483   2.62620   2.63089   2.64066
 Alpha virt. eigenvalues --    2.64133   2.66350   2.67166   2.67172   2.69148
 Alpha virt. eigenvalues --    2.69153   2.73007   2.75620   2.75653   2.79884
 Alpha virt. eigenvalues --    2.79926   2.79937   2.81316   2.81733   2.84523
 Alpha virt. eigenvalues --    2.84868   2.84940   2.84948   2.85759   2.90300
 Alpha virt. eigenvalues --    2.92434   2.92588   2.92611   2.93371   3.03855
 Alpha virt. eigenvalues --    3.06072   3.07555   3.07940   3.10190   3.10213
 Alpha virt. eigenvalues --    3.10665   3.17279   3.19487   3.20337   3.22138
 Alpha virt. eigenvalues --    3.23503   3.23625   3.23633   3.27059   3.28024
 Alpha virt. eigenvalues --    3.28037   3.28284   3.28829   3.31561   3.33759
 Alpha virt. eigenvalues --    3.33769   3.33890   3.36500   3.36536   3.36592
 Alpha virt. eigenvalues --    3.37527   3.38379   3.39064   3.40762   3.40775
 Alpha virt. eigenvalues --    3.50449   3.51680   3.53008   3.53011   3.54465
 Alpha virt. eigenvalues --    3.54899   3.57724   3.57726   3.57895   3.62912
 Alpha virt. eigenvalues --    3.70396   3.70746   3.78723   3.83471   3.83486
 Alpha virt. eigenvalues --    3.92366   3.94443   3.96338   3.99680   4.04632
 Alpha virt. eigenvalues --    4.17787   4.17792   4.42064   4.42206   4.78892
 Alpha virt. eigenvalues --    4.79776   4.80037   4.80764   4.80792   4.85198
 Alpha virt. eigenvalues --    5.07664  23.21981  23.53318  23.55793  23.72615
 Alpha virt. eigenvalues --   23.72631  23.76431  23.86095  23.94077  23.96754
 Alpha virt. eigenvalues --   23.97428  23.97456  23.98527  24.00356  24.02096
 Alpha virt. eigenvalues --   24.02594  24.03526  24.03575  24.08139  24.13468
 Alpha virt. eigenvalues --   24.13486  24.13576  24.13599  24.13831  24.13994
  Beta  occ. eigenvalues --  -10.19198 -10.19194 -10.19172 -10.19171 -10.19160
  Beta  occ. eigenvalues --  -10.19157 -10.19143 -10.19143 -10.19125 -10.19111
  Beta  occ. eigenvalues --  -10.19093 -10.19081 -10.18363 -10.18363 -10.18357
  Beta  occ. eigenvalues --  -10.18357 -10.18345 -10.18345 -10.18299 -10.18299
  Beta  occ. eigenvalues --  -10.18293 -10.18293 -10.18281 -10.18281  -0.91475
  Beta  occ. eigenvalues --   -0.87818  -0.87799  -0.83115  -0.83114  -0.81468
  Beta  occ. eigenvalues --   -0.78387  -0.76893  -0.75197  -0.75178  -0.72009
  Beta  occ. eigenvalues --   -0.72005  -0.64349  -0.64346  -0.64014  -0.64012
  Beta  occ. eigenvalues --   -0.63284  -0.57095  -0.56352  -0.54735  -0.54727
  Beta  occ. eigenvalues --   -0.54486  -0.52442  -0.48381  -0.48373  -0.46733
  Beta  occ. eigenvalues --   -0.46726  -0.46403  -0.46398  -0.44999  -0.43639
  Beta  occ. eigenvalues --   -0.42993  -0.42990  -0.42649  -0.41096  -0.41088
  Beta  occ. eigenvalues --   -0.40588  -0.39253  -0.39216  -0.38349  -0.38304
  Beta  occ. eigenvalues --   -0.36906  -0.36895  -0.36891  -0.33823  -0.33820
  Beta  occ. eigenvalues --   -0.32591  -0.32583  -0.31866  -0.27800  -0.27548
  Beta  occ. eigenvalues --   -0.26026  -0.25949  -0.21200  -0.21195
  Beta virt. eigenvalues --   -0.06498  -0.06472  -0.02885  -0.02865  -0.01125
  Beta virt. eigenvalues --   -0.00755  -0.00253  -0.00221   0.00977   0.00978
  Beta virt. eigenvalues --    0.01036   0.02549   0.02607   0.03328   0.03456
  Beta virt. eigenvalues --    0.03885   0.04468   0.04503   0.04608   0.04609
  Beta virt. eigenvalues --    0.04876   0.05917   0.07253   0.07255   0.07393
  Beta virt. eigenvalues --    0.07398   0.08390   0.08522   0.09093   0.09406
  Beta virt. eigenvalues --    0.09492   0.09499   0.09995   0.10132   0.10380
  Beta virt. eigenvalues --    0.10987   0.11446   0.11581   0.11622   0.11626
  Beta virt. eigenvalues --    0.11779   0.12145   0.12427   0.12559   0.13369
  Beta virt. eigenvalues --    0.13568   0.13573   0.14101   0.14104   0.14273
  Beta virt. eigenvalues --    0.14421   0.14737   0.14844   0.15544   0.15762
  Beta virt. eigenvalues --    0.16544   0.16716   0.16806   0.17081   0.18314
  Beta virt. eigenvalues --    0.18342   0.18724   0.18751   0.18830   0.19239
  Beta virt. eigenvalues --    0.19275   0.19513   0.19521   0.20564   0.20573
  Beta virt. eigenvalues --    0.21442   0.21988   0.22030   0.22266   0.22276
  Beta virt. eigenvalues --    0.22456   0.22646   0.22690   0.22716   0.22883
  Beta virt. eigenvalues --    0.23261   0.23271   0.23716   0.24425   0.24711
  Beta virt. eigenvalues --    0.24866   0.25775   0.26660   0.27164   0.27170
  Beta virt. eigenvalues --    0.27560   0.27601   0.27765   0.28618   0.28799
  Beta virt. eigenvalues --    0.29073   0.29476   0.29480   0.29890   0.29938
  Beta virt. eigenvalues --    0.30065   0.30208   0.30282   0.30666   0.30692
  Beta virt. eigenvalues --    0.31387   0.32432   0.32440   0.32507   0.32541
  Beta virt. eigenvalues --    0.32594   0.33521   0.33541   0.33544   0.34508
  Beta virt. eigenvalues --    0.34518   0.35537   0.35809   0.36054   0.36421
  Beta virt. eigenvalues --    0.37264   0.37312   0.38326   0.39326   0.39382
  Beta virt. eigenvalues --    0.40965   0.40983   0.41964   0.42036   0.42305
  Beta virt. eigenvalues --    0.42973   0.43009   0.43420   0.43944   0.46815
  Beta virt. eigenvalues --    0.49780   0.49953   0.49988   0.50474   0.50650
  Beta virt. eigenvalues --    0.50662   0.51271   0.53548   0.53783   0.55172
  Beta virt. eigenvalues --    0.55282   0.55816   0.55841   0.55855   0.56136
  Beta virt. eigenvalues --    0.56158   0.57083   0.57244   0.58916   0.58930
  Beta virt. eigenvalues --    0.59362   0.59979   0.60172   0.60791   0.61147
  Beta virt. eigenvalues --    0.61314   0.61469   0.61897   0.62486   0.62610
  Beta virt. eigenvalues --    0.62815   0.62935   0.62939   0.63399   0.63418
  Beta virt. eigenvalues --    0.64556   0.64827   0.65102   0.66198   0.66558
  Beta virt. eigenvalues --    0.67175   0.67255   0.67265   0.67391   0.68612
  Beta virt. eigenvalues --    0.68643   0.71517   0.73996   0.74153   0.74843
  Beta virt. eigenvalues --    0.75053   0.75055   0.75937   0.76267   0.76855
  Beta virt. eigenvalues --    0.77379   0.77829   0.77836   0.78461   0.78494
  Beta virt. eigenvalues --    0.78498   0.78764   0.79643   0.80324   0.80445
  Beta virt. eigenvalues --    0.81655   0.83870   0.83879   0.84231   0.85290
  Beta virt. eigenvalues --    0.85380   0.87358   0.88732   0.90343   0.90670
  Beta virt. eigenvalues --    0.91201   0.91310   0.91983   0.91994   0.92397
  Beta virt. eigenvalues --    0.92905   0.94656   0.94695   0.94966   0.95397
  Beta virt. eigenvalues --    0.95522   0.96182   0.96664   0.96837   0.96967
  Beta virt. eigenvalues --    0.96969   0.98365   0.98395   0.98400   1.00045
  Beta virt. eigenvalues --    1.00053   1.00121   1.00782   1.01376   1.01397
  Beta virt. eigenvalues --    1.01403   1.02415   1.03223   1.04976   1.05484
  Beta virt. eigenvalues --    1.06486   1.11495   1.11972   1.12929   1.13056
  Beta virt. eigenvalues --    1.13074   1.15047   1.15083   1.15796   1.16508
  Beta virt. eigenvalues --    1.17319   1.17568   1.17648   1.17925   1.18537
  Beta virt. eigenvalues --    1.20702   1.21041   1.21045   1.21045   1.21397
  Beta virt. eigenvalues --    1.21403   1.32093   1.32102   1.32752   1.32772
  Beta virt. eigenvalues --    1.33572   1.37189   1.38586   1.43758   1.44052
  Beta virt. eigenvalues --    1.45442   1.46391   1.46417   1.47085   1.48638
  Beta virt. eigenvalues --    1.48700   1.48713   1.48859   1.49458   1.50559
  Beta virt. eigenvalues --    1.50725   1.50926   1.50942   1.53660   1.53826
  Beta virt. eigenvalues --    1.54444   1.57972   1.58256   1.59183   1.60514
  Beta virt. eigenvalues --    1.60523   1.61965   1.62531   1.62902   1.67845
  Beta virt. eigenvalues --    1.67862   1.71624   1.72080   1.72841   1.72857
  Beta virt. eigenvalues --    1.72913   1.76445   1.78732   1.78735   1.81372
  Beta virt. eigenvalues --    1.81416   1.82702   1.82713   1.83884   1.84006
  Beta virt. eigenvalues --    1.87264   1.88320   1.89816   1.89840   1.90200
  Beta virt. eigenvalues --    1.91694   1.91701   1.93492   1.93502   1.94252
  Beta virt. eigenvalues --    1.94813   1.95057   1.96937   1.97679   1.99379
  Beta virt. eigenvalues --    1.99391   2.00966   2.01194   2.02204   2.02255
  Beta virt. eigenvalues --    2.02464   2.02479   2.02778   2.04012   2.07827
  Beta virt. eigenvalues --    2.08290   2.13857   2.13865   2.15022   2.16303
  Beta virt. eigenvalues --    2.16669   2.20612   2.20617   2.24347   2.24370
  Beta virt. eigenvalues --    2.24387   2.25980   2.26048   2.26324   2.30223
  Beta virt. eigenvalues --    2.34385   2.34411   2.35236   2.35282   2.38041
  Beta virt. eigenvalues --    2.40298   2.40406   2.41014   2.46012   2.46684
  Beta virt. eigenvalues --    2.48126   2.48136   2.50344   2.50829   2.51700
  Beta virt. eigenvalues --    2.53471   2.54189   2.54927   2.54949   2.60664
  Beta virt. eigenvalues --    2.62147   2.62483   2.62620   2.63089   2.64066
  Beta virt. eigenvalues --    2.64133   2.66350   2.67166   2.67172   2.69148
  Beta virt. eigenvalues --    2.69153   2.73007   2.75620   2.75653   2.79884
  Beta virt. eigenvalues --    2.79926   2.79937   2.81316   2.81733   2.84523
  Beta virt. eigenvalues --    2.84868   2.84940   2.84948   2.85759   2.90300
  Beta virt. eigenvalues --    2.92434   2.92588   2.92611   2.93371   3.03855
  Beta virt. eigenvalues --    3.06072   3.07555   3.07940   3.10190   3.10213
  Beta virt. eigenvalues --    3.10665   3.17279   3.19487   3.20337   3.22138
  Beta virt. eigenvalues --    3.23503   3.23625   3.23633   3.27059   3.28024
  Beta virt. eigenvalues --    3.28037   3.28284   3.28829   3.31561   3.33759
  Beta virt. eigenvalues --    3.33769   3.33890   3.36500   3.36536   3.36592
  Beta virt. eigenvalues --    3.37527   3.38379   3.39064   3.40762   3.40775
  Beta virt. eigenvalues --    3.50449   3.51680   3.53008   3.53011   3.54465
  Beta virt. eigenvalues --    3.54899   3.57724   3.57726   3.57895   3.62912
  Beta virt. eigenvalues --    3.70396   3.70746   3.78723   3.83471   3.83486
  Beta virt. eigenvalues --    3.92366   3.94443   3.96338   3.99680   4.04632
  Beta virt. eigenvalues --    4.17787   4.17792   4.42064   4.42206   4.78892
  Beta virt. eigenvalues --    4.79776   4.80037   4.80764   4.80792   4.85198
  Beta virt. eigenvalues --    5.07664  23.21981  23.53318  23.55793  23.72615
  Beta virt. eigenvalues --   23.72631  23.76431  23.86095  23.94077  23.96754
  Beta virt. eigenvalues --   23.97428  23.97456  23.98527  24.00356  24.02096
  Beta virt. eigenvalues --   24.02594  24.03526  24.03575  24.08139  24.13468
  Beta virt. eigenvalues --   24.13486  24.13576  24.13599  24.13831  24.13994
          Condensed to atoms (all electrons):
               1          2          3          4          5          6
     1  C    9.103089  -1.278309  -0.579452  -0.079507  -2.080889   1.736351
     2  C   -1.278309   9.199826   0.608622   0.548230   0.725831  -2.068175
     3  C   -0.579452   0.608622   6.743127   0.059896   0.653096  -0.073568
     4  C   -0.079507   0.548230   0.059896   6.652494   0.496230  -0.585853
     5  C   -2.080889   0.725831   0.653096   0.496230   9.426598  -1.249802
     6  C    1.736351  -2.068175  -0.073568  -0.585853  -1.249802   9.167509
     7  C   -0.491970   0.608296   0.002725   0.318335   0.041980  -0.502073
     8  C   -0.581077   0.177000   0.155112   0.136262   0.611644  -0.617716
     9  C   -0.006140  -0.028111   0.270158   0.293294   0.094175   0.087864
    10  C    0.004025   0.114617   0.293294   0.049520   0.070945  -0.070152
    11  C   -0.019251  -0.012895  -0.028111   0.114617  -0.027438   0.064195
    12  C   -0.076415  -0.014808  -0.036719  -0.518214  -0.202785  -0.047961
    13  C   -0.046270   0.063563   0.070267  -0.549698  -0.035813   0.151377
    14  C   -0.173697  -0.072902   0.177483   0.570168   0.734138   0.011364
    15  C    0.448232  -0.179383  -0.588302  -0.048495  -2.087802   0.137192
[...]
 ,0.00121898,0.00000692,-0.00003771,0.00003780,-0.00000133,-0.00003485,
 0.00007285,-0.00000414,0.00007756,-0.00002186,0.00000236,-0.00011447,0
 .00002029,-0.00000134,-0.00000972,-0.00000626,0.00000025,-0.00000147,-
 0.00001075,0.00000007,0.00015064,-0.00005565,0.00000337,-0.00007416,-0
 .00000426,-0.00000153,0.00167777,0.00088843,-0.00002816,-0.00000453,-0
 .00000228,0.00000014,0.00000315,-0.00001331,-0.00000178,-0.26439711,-0
 .11777512,-0.00091972,0.27985914,0.00003129,-0.00002939,0.00000186,-0.
 00001878,0.00010026,0.00000018,-0.00007812,-0.00008878,-0.00000333,0.0
 0011160,-0.00016009,0.00000216,0.00004068,-0.00002528,0.00000016,0.000
 03385,0.00002075,-0.00000189,-0.00000970,0.00013545,-0.00000356,0.0006
 3372,0.00058390,0.00000054,0.00284872,-0.00160311,0.00001559,0.0004204
 4,-0.00049704,0.00000159,0.01407212,0.01075490,0.00005509,0.00115941,0
 .00115535,0.00000030,-0.00043190,0.00009940,0.00000344,0.00020728,0.00
 017974,0.00000155,-0.00016726,-0.00003088,-0.00000067,0.00006432,0.000
 09917,0.00000138,-0.00000725,0.00000062,-0.00000007,0.00001105,0.00000
 003,-0.00000008,-0.00000686,-0.00000286,0.00000002,0.00000304,0.000010
 11,-0.00000006,-0.00038615,-0.00021409,-0.00000114,-0.00002803,0.00001
 182,-0.00000077,0.00004897,-0.00010358,-0.00000019,-0.00012366,0.00003
 709,-0.00000050,0.00024328,-0.00004081,0.00000123,-0.00001072,0.000000
 12,-0.00000008,0.00000411,-0.00000479,0.00000008,-0.00004531,-0.000540
 63,0.00000198,-0.00148276,0.00016968,-0.00000716,0.00203385,-0.0052537
 4,0.00000910,-0.00014422,-0.00008922,0.00000063,0.00005233,-0.00002862
 ,-0.00000070,-0.11736564,-0.12662520,-0.00048655,0.12755502,0.13278862
 ,0.00000116,-0.00000148,0.00003400,0.00000187,0.00000169,-0.00006933,0
 .00000015,-0.00000054,0.00037442,-0.00000370,-0.00000297,-0.00035218,0
 .00000167,-0.00000413,0.00004034,-0.00000002,0.00000171,-0.00006766,-0
 .00000603,-0.00000469,-0.00125053,0.00000779,-0.00000314,0.00064739,-0
 .00002626,0.00000920,0.00391813,0.00000300,-0.00000626,0.00017457,-0.0
 0009223,-0.00003994,0.00288209,0.00001609,-0.00000363,-0.00268622,-0.0
 0000419,0.00000118,-0.00020365,0.00000369,-0.00000029,-0.00000663,-0.0
 0000282,0.00000025,0.00002374,0.00000065,0.00000228,-0.00002987,0.0000
 0013,0.00000002,0.00000321,-0.00000025,0.00000071,0.00002398,-0.000000
 13,-0.00000002,0.00000343,-0.00000021,-0.00000003,0.00000851,0.0000048
 5,0.00000688,0.00023826,-0.00000069,-0.00000223,0.00015183,0.00000030,
 -0.00000201,0.00006119,-0.00000266,0.00000028,0.00002127,0.00000109,0.
 00000498,0.00028280,-0.00000002,-0.00000029,-0.00001890,0.,-0.00000008
 ,0.00000267,0.00000104,-0.00000444,-0.00069831,-0.00000559,0.00000236,
 0.00031385,-0.00002735,0.00000348,0.00846078,-0.00000041,-0.00000019,-
 0.00001876,-0.00000089,0.00000079,0.00014943,-0.00090718,-0.00051322,-
 0.03482357,0.00101195,0.00052976,0.02409639,-0.00144286,0.00189274,0.0
 0002144,-0.00006351,-0.00387246,-0.00003128,0.00041128,0.00016844,0.00
 000049,0.00200174,-0.00053562,0.00012006,0.00019315,0.00416750,0.00000
 336,-0.00112876,-0.00213143,0.00000019,-0.00300470,0.00367215,0.000033
 44,-0.00319518,0.00175571,-0.00002255,-0.00514732,-0.01608291,-0.00003
 946,-0.04661108,0.00624560,-0.00031466,0.02326553,0.02343160,0.0000522
 2,-0.00946820,0.00949195,-0.00002915,0.00796845,0.00043073,0.00000569,
 -0.00611904,-0.00208030,0.00003628,0.00457187,-0.00069518,-0.00001155,
 -0.00273000,-0.00354334,-0.00001666,-0.00003395,-0.00007207,0.00000092
 ,0.00003130,0.00005392,0.00000100,-0.00002937,0.00003385,0.00000002,0.
 00001271,-0.00003137,-0.00000060,0.00008802,0.00040944,-0.00000078,-0.
 00032425,0.00032920,0.00000336,-0.00298530,0.00507040,-0.00001952,0.00
 694483,0.00004944,0.00000644,-0.01001821,0.00198852,0.00000839,-0.0000
 1619,0.00003184,0.00000108,0.00004692,-0.00003253,0.00000116,0.0146231
 6,0.00441836,0.00000019,-0.00438058,-0.02441353,0.00000531,-0.24614598
 ,-0.07869479,-0.00064217,0.00075101,0.00047325,-0.00000722,0.00076853,
 0.00186921,0.00000747,-0.12934390,0.02764235,-0.00030930,0.00379459,-0
 .02965163,-0.00000265,0.67123278,-0.00190041,0.00364885,0.00001461,0.0
 0051163,-0.00687544,-0.00001743,0.00271710,0.00236514,0.00004761,0.002
 82407,-0.00144842,0.00007141,-0.00035521,0.00673925,-0.00004275,-0.002
 13143,-0.00337903,0.00002485,0.00245825,-0.00341611,0.00014205,-0.0041
 2985,0.00197845,-0.00003393,-0.01292521,-0.02942408,-0.00005916,-0.007
 31250,0.04271365,-0.00022979,0.05706424,-0.04751589,0.00016501,-0.0069
 4339,0.02118365,0.00001709,0.01698518,-0.00209235,0.00001776,-0.012353
 33,-0.00352979,0.00003675,0.00933876,-0.00054155,-0.00001171,-0.004330
 54,-0.00728025,-0.00001823,-0.00004938,-0.00010542,0.00000142,0.000099
 45,0.00003969,0.00000156,0.00005495,0.00002075,-0.00000171,0.00002017,
 -0.00003009,-0.00000151,-0.00046429,0.00003819,-0.00000452,0.00031866,
 -0.00006766,-0.00000383,-0.00495613,0.00707476,-0.00003598,0.00994303,
 0.00117976,-0.00001041,-0.01334976,0.00182312,0.00004637,-0.00007013,0
 .00013006,0.00000246,0.00018465,-0.00000293,0.00000245,0.02084526,-0.0
 0290887,0.00004381,-0.04550812,-0.04472774,-0.00008791,-0.04632663,-0.
 14002335,-0.00009726,-0.00100674,-0.00065463,0.00000301,-0.00136685,0.
 00145924,-0.00001328,-0.02800872,-0.39165757,-0.00013377,0.00165983,-0
 .01168196,0.00002492,-0.04930682,0.73383926,-0.00002084,0.00001181,-0.
 00030820,0.00001800,0.00000988,-0.00008479,0.00001071,-0.00001908,0.00
 028665,-0.00001460,0.00000030,-0.00044572,-0.00000483,0.00004230,0.000
 23626,-0.00000019,-0.00002485,0.00023415,0.00002535,0.00001598,0.00582
 947,0.00004260,-0.00006683,-0.00036948,0.00000558,-0.00004079,-0.00288
 839,-0.00026188,0.00002983,0.00434924,0.00009582,0.00008207,0.00533849
 ,-0.00004504,0.00002539,0.00533424,0.00001856,-0.00000458,0.00047928,-
 0.00003723,0.00002647,-0.00024772,0.00004276,-0.00000423,0.00026355,-0
 .00001978,-0.00002603,-0.00034589,0.00000383,-0.00000347,0.00006333,0.
 00000065,0.00000175,-0.00003082,0.00000455,0.00000189,-0.00006766,-0.0
 0000560,0.00000222,0.00003273,0.00000281,-0.00000192,-0.00020317,0.000
 00057,0.00000420,-0.00069495,0.00000188,0.00001723,0.00020722,0.000005
 51,-0.00001161,-0.00072794,-0.00002422,-0.00002062,-0.00095474,-0.0000
 0108,-0.00000215,0.00002219,0.00000094,-0.00000158,0.00002027,0.000012
 22,0.00003196,0.00536327,0.00005054,0.00001888,0.00291627,-0.00070353,
 -0.00023784,-0.06124139,0.00000200,0.00000641,0.00031040,0.00001292,-0
 .00001065,-0.00271732,-0.00031821,0.00009778,-0.05546605,0.00001034,-0
 .00012424,0.00312670,0.00208565,-0.00032148,0.12714183,-0.00002961,-0.
 00005516,-0.00000559,-0.00008677,0.00012634,0.00000425,-0.00027860,-0.
 00038042,0.00000781,0.00006458,-0.00006435,0.00000082,-0.00004182,0.00
 005286,-0.00000121,0.00001271,0.00002017,0.00000560,-0.00062548,0.0013
 9737,-0.00001448,-0.00001588,0.00010080,0.00001612,0.00012856,-0.00070
 713,-0.00000965,-0.00256483,-0.00414031,-0.00001388,0.00167469,-0.0008
 8511,-0.00002884,-0.00007383,0.00000357,-0.00000039,0.00015111,0.00005
 566,0.00000339,-0.00011573,-0.00002100,-0.00000166,0.00007793,0.000021
 94,0.00000261,-0.00003561,-0.00007268,-0.00000523,-0.00000934,0.000006
 10,0.00000054,-0.00000160,0.00001118,-0.00000036,-0.00002221,0.0000030
 4,0.00000021,-0.00000895,0.00000693,0.00000004,0.00000388,0.00001461,-
 0.00000257,-0.00000463,0.00000154,0.00000043,-0.00002994,-0.00001691,-
 0.00000021,0.00007624,-0.00004862,0.00000067,0.00017868,0.00002589,-0.
 00000184,-0.00000677,-0.00000756,0.00000004,-0.00002451,-0.00003196,0.
 00000048,0.00003555,-0.00044079,0.00000063,0.00106008,0.00202614,0.000
 00997,-0.02006146,0.01527595,-0.00009994,-0.00003811,-0.00003548,-0.00
 000046,0.00035908,-0.00120087,0.00000757,0.00380303,-0.00167928,0.0000
 0973,0.00094583,0.00038362,0.00002680,-0.26444106,0.11787537,-0.000917
 62,0.27995368,-0.00003427,0.00002111,0.00000188,-0.00004086,-0.0000257
 7,-0.00000004,-0.00011097,-0.00015986,-0.00000004,0.00007832,-0.000088
 49,0.00000093,0.00001943,0.00010111,0.00000032,-0.00003137,-0.00003009
 ,-0.00000222,-0.00063293,0.00058579,-0.00000352,0.00000865,0.00013498,
 0.00000542,-0.00041156,-0.00049792,-0.00000450,-0.00285718,-0.00159420
 ,-0.00001481,-0.00203205,-0.00525828,-0.00001255,0.00148266,0.00017164
 ,0.00000736,0.00004591,-0.00054004,-0.00000133,-0.00024388,-0.00004099
 ,-0.00000240,0.00012426,0.00003686,0.00000015,-0.00004962,-0.00010354,
 0.00000106,0.00001056,0.00000027,-0.00000021,-0.00000406,-0.00000505,0
 .00000012,-0.00000300,0.00001011,0.00000003,0.00000693,-0.00000291,0.0
 0000002,-0.00005254,-0.00003010,0.00000066,0.00014408,-0.00008879,-0.0
 0000046,-0.00006404,0.00009998,-0.00000034,0.00016803,-0.00003138,-0.0
 0000158,-0.00020690,0.00017733,0.00000079,0.00000718,0.00000058,-0.000
 00007,-0.00001097,0.00000030,0.00000026,0.00043255,0.00010140,-0.00000
 133,-0.00119034,0.00115719,-0.00000272,-0.01408919,0.01068280,-0.00005
 319,0.00002825,0.00001150,0.00000034,0.00039058,-0.00014534,-0.0000006
 0,0.02960339,-0.01163886,0.00012441,-0.00038003,0.00086980,-0.00000425
 ,0.11752198,-0.12682207,0.00047515,-0.12762612,0.13293955,0.00000056,-
 0.00000153,-0.00006730,0.00000216,0.00000377,0.00004222,-0.00000415,0.
 00000439,-0.00036637,-0.00000142,0.00000170,0.00039141,0.00000100,-0.0
 0000218,-0.00007477,0.00000060,0.00000151,0.00003273,0.00000844,0.0000
 0332,0.00066263,-0.00000036,0.00000091,-0.00126812,0.00000335,0.000007
 34,0.00019542,-0.00003278,-0.00001690,0.00390042,-0.00003197,-0.000001
 82,0.00845772,-0.00000393,-0.00000345,0.00030880,-0.00000097,0.0000042
 7,-0.00069500,0.00000171,-0.00000320,0.00028640,-0.00000313,0.00000002
 ,0.00001692,0.00000155,0.00000232,0.00006841,-0.00000026,0.00000033,-0
 .00001973,-0.00000006,-0.00000005,0.00000348,-0.00000025,0.00000006,0.
 00000851,-0.00000004,-0.00000002,0.00000314,-0.00000138,-0.00000089,0.
 00015061,-0.00000018,0.00000045,-0.00001908,0.00000104,-0.00000281,-0.
 00002821,-0.00000290,0.00000012,0.00002055,0.00000479,0.00000156,-0.00
 001119,-0.00000014,-0.00000009,0.00000270,-0.00000036,-0.00000027,0.00
 002479,-0.00000497,-0.00000205,-0.00020066,0.00001812,0.00000623,-0.00
 271361,-0.00009790,0.00004563,0.00287809,-0.00000029,0.00000111,0.0001
 4933,0.00000285,-0.00000554,0.00025849,0.00000399,-0.00003535,0.003099
 24,0.00002607,0.00000439,-0.00481980,-0.00089855,0.00050658,-0.0347827
 7,0.00101347,-0.00051659,0.02409732,-0.00011955,0.00014603,0.00004314,
 0.00049793,0.00029086,-0.00000586,-0.00061510,0.00027189,-0.00106561,-
 0.00070086,-0.00055361,-0.00069515,0.00032912,-0.00019492,-0.00008723,
 -0.00011729,-0.00014117,0.00004568,-0.00055490,0.00012354,0.00071312,-
 0.00002665,-0.00017319,0.00076708,0.00010956,-0.00019638,0.00087827,0.
 00006496,0.00047322,0.00136629,-0.00002363,-0.00002042,0.00003894,0.00
 000667,-0.00006966,-0.00003873,-0.00003619,0.00001954,-0.00001842,0.00
 005481,0.00030609,0.00000904,-0.00002803,0.00002311,0.00001091,-0.0000
 0119,0.00001061,0.00001763,-0.00000497,0.00001161,-0.00000095,0.000007
 54,0.00000612,-0.00000582,-0.00001483,0.00000038,-0.00000260,-0.000012
 13,0.00000143,-0.00000181,0.00000437,0.00000508,0.00000064,-0.00000496
 ,0.00000778,-0.00000829,0.00002620,-0.00008291,0.00000992,-0.00009779,
 -0.00002405,0.00001280,0.00003968,-0.00022785,-0.00002113,-0.00000598,
 -0.00001543,-0.00000191,0.00000579,-0.00000773,-0.00000515,-0.00009092
 ,-0.00001152,-0.00002145,0.00004822,0.00009421,-0.00004304,0.00018116,
 -0.00007084,0.00002691,-0.00000350,-0.00000735,-0.00000648,0.00000521,
 0.00000041,-0.00000162,-0.00002655,-0.00004108,-0.00000828,0.00000697,
 -0.00000112,-0.00000155,0.00004082,0.00003601,-0.00003346,0.00000326,-
 0.00000231,-0.00000552,0.31197333,-0.00000545,-0.00000231,-0.00001335,
 0.00030560,0.00017684,0.00000340,0.00009751,-0.00068386,-0.00071672,0.
 00007608,-0.00046054,0.00102905,-0.00033100,0.00022559,0.00002203,-0.0
 0002044,-0.00001485,-0.00000812,-0.00054842,-0.00039720,-0.00111333,0.
 00049195,-0.00018834,0.00121047,-0.00000410,0.00015524,0.00036754,-0.0
 0014516,0.00000114,-0.00009066,-0.00010316,-0.00004073,0.00004717,-0.0
 0004352,0.00001942,-0.00002142,0.00004467,-0.00002334,-0.00001501,0.00
 000899,0.00015363,0.00005293,0.00012686,-0.00002284,-0.00004340,-0.000
 04954,-0.00008957,-0.00001979,-0.00000569,-0.00000461,-0.00000647,0.00
 000169,-0.00000016,0.00000041,-0.00000878,0.00000418,0.00000008,0.0000
 0192,0.00000879,-0.00000432,-0.00000237,0.00000431,0.00000110,-0.00000
 147,-0.00000202,-0.00000054,0.00005961,-0.00012781,0.00003651,-0.00013
 303,-0.00001812,0.00004428,-0.00002696,0.00042375,-0.00009880,-0.00000
 183,-0.00000577,0.00000066,-0.00000668,-0.00000533,0.00000152,0.000028
 54,-0.00000065,0.00002113,-0.00000537,-0.00005527,0.00004262,0.0001960
 8,-0.00007385,0.00000165,0.00000841,-0.00000535,0.00000208,0.00000728,
 0.00000375,-0.00000499,-0.00004825,0.00003294,-0.00003490,0.00000338,-
 0.00000092,0.00000340,0.00001623,-0.00003375,0.00001234,0.00000279,-0.
 00000742,-0.00000758,0.11730702,0.04541892,-0.00001318,0.00003705,0.00
 000921,0.00024540,0.00013369,0.00001400,-0.00002363,0.00003971,-0.0010
 5063,-0.00027944,-0.00013537,-0.00112463,0.00025711,-0.00012840,-0.000
 00971,-0.00004427,-0.00001904,0.00001360,-0.00039487,-0.00022352,-0.00
 124068,-0.00078831,0.00042035,-0.00125397,0.00028030,0.00019666,-0.001
 06809,-0.00007181,-0.00078512,-0.00118469,0.00036517,0.00020218,0.0000
 1609,0.00005893,-0.00005119,-0.00000522,-0.00006373,-0.00004804,0.0000
 1654,0.00001304,-0.00001326,-0.00001841,-0.00003835,0.00004710,0.00001
 423,0.00004290,0.00001619,0.00001305,0.00000393,0.00000979,0.00000286,
 0.00000852,-0.00000548,0.00000136,-0.00000698,0.00000236,0.00000033,-0
 .00000317,0.00000117,0.00000009,-0.00000626,-0.00001985,0.00000469,0.0
 0000431,-0.00000834,0.00000668,0.00003698,-0.00002616,0.00000975,-0.00
 004010,-0.00003901,0.00001716,0.00001457,0.00025746,-0.00001844,-0.000
 00019,-0.00000872,0.00000084,0.00000200,-0.00000138,0.00000040,0.00002
 136,0.00003819,0.00001914,0.00002470,-0.00003520,0.00001399,0.00012999
 ,-0.00005241,0.00001594,0.00001047,0.00000109,0.00000380,-0.00000228,0
 .00001453,0.00000194,-0.00005104,0.00009414,0.00000147,-0.00001978,0.0
 0000232,0.00000613,-0.00009233,-0.00006411,0.00000783,-0.00001039,0.00
 000501,0.00000720,-0.00071494,-0.00027768,0.00524054,-0.00002655,-0.00
 004108,0.00000828,-0.00002363,-0.00002042,-0.00003894,0.00010956,-0.00
 019638,-0.00087827,0.00006496,0.00047322,-0.00136629,0.00018116,-0.000
 07084,-0.00002691,0.00004082,0.00003601,0.00003346,-0.00002665,-0.0001
 7319,-0.00076708,-0.00055490,0.00012354,-0.00071312,-0.00061510,0.0002
 7189,0.00106561,-0.00070086,-0.00055361,0.00069515,0.00049793,0.000290
 86,0.00000586,0.00002620,-0.00008291,-0.00000992,-0.00009779,-0.000024
 05,-0.00001280,0.00003968,-0.00022785,0.00002113,-0.00009092,-0.000011
 52,0.00002145,0.00004822,0.00009421,0.00004304,0.00000521,0.00000041,0
 .00000162,-0.00000350,-0.00000735,0.00000648,0.00000697,-0.00000112,0.
 00000155,0.00000326,-0.00000231,0.00000552,-0.00000598,-0.00001543,0.0
 0000191,0.00000579,-0.00000773,0.00000515,0.00000667,-0.00006966,0.000
 03873,-0.00003619,0.00001954,0.00001842,0.00005481,0.00030609,-0.00000
 904,0.00000437,0.00000508,-0.00000064,-0.00000496,0.00000778,0.0000082
 9,-0.00002803,0.00002311,-0.00001091,-0.00000119,0.00001061,-0.0000176
 3,0.00032912,-0.00019492,0.00008723,0.00000754,0.00000612,0.00000582,-
 0.00000497,0.00001161,0.00000095,-0.00011955,0.00014603,-0.00004314,-0
 .00001483,0.00000038,0.00000260,-0.00011729,-0.00014117,-0.00004568,-0
 .00001213,0.00000143,0.00000181,-0.31092056,-0.11729339,0.00114538,0.3
 1197333,-0.00004825,0.00003294,0.00003490,-0.00010316,-0.00004073,-0.0
 0004717,-0.00000410,0.00015524,-0.00036754,-0.00014516,0.00000114,0.00
 009066,0.00019608,-0.00007385,-0.00000165,0.00001623,-0.00003375,-0.00
 001234,0.00049195,-0.00018834,-0.00121047,-0.00054842,-0.00039720,0.00
 111333,0.00009751,-0.00068386,0.00071672,0.00007608,-0.00046054,-0.001
 02905,0.00030560,0.00017684,-0.00000340,0.00005961,-0.00012781,-0.0000
 3651,-0.00013303,-0.00001812,-0.00004428,-0.00002696,0.00042375,0.0000
 9880,0.00002854,-0.00000065,-0.00002113,-0.00000537,-0.00005527,-0.000
 04262,0.00000728,0.00000375,0.00000499,0.00000841,-0.00000535,-0.00000
 208,0.00000338,-0.00000092,-0.00000340,0.00000279,-0.00000742,0.000007
 58,-0.00000183,-0.00000577,-0.00000066,-0.00000668,-0.00000533,-0.0000
 0152,-0.00004352,0.00001942,0.00002142,0.00004467,-0.00002334,0.000015
 01,0.00000899,0.00015363,-0.00005293,-0.00000237,0.00000431,-0.0000011
 0,-0.00000147,-0.00000202,0.00000054,0.00012686,-0.00002284,0.00004340
 ,-0.00004954,-0.00008957,0.00001979,-0.00033100,0.00022559,-0.00002203
 ,0.00000169,-0.00000016,-0.00000041,-0.00000569,-0.00000461,0.00000647
 ,-0.00000545,-0.00000231,0.00001335,-0.00000878,0.00000418,-0.00000008
 ,-0.00002044,-0.00001485,0.00000812,0.00000192,0.00000879,0.00000432,-
 0.11729339,-0.04436388,0.00042328,0.11730702,0.04541892,0.00005104,-0.
 00009414,0.00000147,-0.00036517,-0.00020218,0.00001609,-0.00028030,-0.
 00019666,-0.00106809,0.00007181,0.00078512,-0.00118469,-0.00012999,0.0
 0005241,0.00001594,0.00009233,0.00006411,0.00000783,0.00078831,-0.0004
 2035,-0.00125397,0.00039487,0.00022352,-0.00124068,0.00002363,-0.00003
 971,-0.00105063,0.00027944,0.00013537,-0.00112463,-0.00024540,-0.00013
 369,0.00001400,-0.00003698,0.00002616,0.00000975,0.00004010,0.00003901
 ,0.00001716,-0.00001457,-0.00025746,-0.00001844,-0.00002136,-0.0000381
 9,0.00001914,-0.00002470,0.00003520,0.00001399,0.00000228,-0.00001453,
 0.00000194,-0.00001047,-0.00000109,0.00000380,0.00001978,-0.00000232,0
 .00000613,0.00001039,-0.00000501,0.00000720,0.00000019,0.00000872,0.00
 000084,-0.00000200,0.00000138,0.00000040,-0.00005893,0.00005119,-0.000
 00522,0.00006373,0.00004804,0.00001654,-0.00001304,0.00001326,-0.00001
 841,0.00000626,0.00001985,0.00000469,-0.00000431,0.00000834,0.00000668
 ,0.00003835,-0.00004710,0.00001423,-0.00004290,-0.00001619,0.00001305,
 -0.00025711,0.00012840,-0.00000971,-0.00000852,0.00000548,0.00000136,-
 0.00000393,-0.00000979,0.00000286,0.00001318,-0.00003705,0.00000921,0.
 00000698,-0.00000236,0.00000033,0.00004427,0.00001904,0.00001360,0.000
 00317,-0.00000117,0.00000009,-0.00114538,-0.00042328,0.00151560,0.0007
 1494,0.00027768,0.00524054\\-0.00005136,0.00011778,-0.00001331,0.00001
 506,-0.00000064,-0.00004982,-0.00003388,0.00007635,0.00098298,0.000081
 50,-0.00029706,0.00122438,-0.00020985,0.00010568,-0.00002166,-0.000019
 01,-0.00008164,-0.00001214,-0.00011764,0.00021901,0.00125588,0.0001176
 4,-0.00021901,0.00125588,0.00003388,-0.00007635,0.00098298,-0.00008150
 ,0.00029706,0.00122438,-0.00001506,0.00000064,-0.00004982,-0.00004984,
 0.00006737,-0.00002210,0.00008617,-0.00001281,-0.00002103,0.00003308,0
 .00027214,-0.00001998,-0.00003794,-0.00003181,-0.00002431,0.00005248,0
 .00001252,-0.00002251,-0.00002573,0.00000740,-0.00000208,0.00001286,0.
 00002250,-0.00000231,-0.00001539,-0.00001070,-0.00000152,-0.00001662,0
 .00003430,-0.00000397,0.00003421,-0.00001177,-0.00000029,-0.00002497,0
 .00001756,-0.00000354,0.00004984,-0.00006737,-0.00002210,-0.00008617,0
 .00001281,-0.00002103,-0.00003308,-0.00027214,-0.00001998,-0.00003421,
 0.00001177,-0.00000029,0.00002497,-0.00001756,-0.00000354,0.00003794,0
 .00003181,-0.00002431,-0.00005248,-0.00001252,-0.00002251,0.00020985,-
 0.00010568,-0.00002166,-0.00001286,-0.00002250,-0.00000231,0.00002573,
 -0.00000740,-0.00000208,0.00005136,-0.00011778,-0.00001331,0.00001539,
 0.00001070,-0.00000152,0.00001901,0.00008164,-0.00001214,0.00001662,-0
 .00003430,-0.00000397,0.00086372,0.00030706,-0.00324266,-0.00086372,-0
 .00030706,-0.00324266\\\@


 TIME IS NATURE'S WAY OF MAKING SURE EVERYTHING
 DOESN'T HAPPEN AT ONCE.
                     - WOODY ALLEN
 Job cpu time:       3 days  2 hours  0 minutes 13.5 seconds.
 File lengths (MBytes):  RWF=   5938 Int=      0 D2E=      0 Chk=     29 Scr=      1
 Normal termination of Gaussian 09 at Wed Mar 18 05:59:57 2015.
