 Entering Gaussian System, Link 0=g09
 Initial command:
 /projects/guscus/apps/gau/g09-d1source/g09/l1.exe "/shared.scratch/jz21/ttpp/graphene/coronene/sheet/hol-par/diffus/scan/03/Gau-4963.inp" -scrdir="/shared.scratch/jz21/ttpp/graphene/coronene/sheet/hol-par/diffus/scan/03/"
 Entering Link 1 = /projects/guscus/apps/gau/g09-d1source/g09/l1.exe PID=      4964.
  
 Copyright (c) 1988,1990,1992,1993,1995,1998,2003,2009,2013,
            Gaussian, Inc.  All Rights Reserved.
  
 This is part of the Gaussian(R) 09 program.  It is based on
 the Gaussian(R) 03 system (copyright 2003, Gaussian, Inc.),
 the Gaussian(R) 98 system (copyright 1998, Gaussian, Inc.),
 the Gaussian(R) 94 system (copyright 1995, Gaussian, Inc.),
 the Gaussian 92(TM) system (copyright 1992, Gaussian, Inc.),
 the Gaussian 90(TM) system (copyright 1990, Gaussian, Inc.),
 the Gaussian 88(TM) system (copyright 1988, Gaussian, Inc.),
 the Gaussian 86(TM) system (copyright 1986, Carnegie Mellon
 University), and the Gaussian 82(TM) system (copyright 1983,
 Carnegie Mellon University). Gaussian is a federally registered
 trademark of Gaussian, Inc.
  
 This software contains proprietary and confidential information,
 including trade secrets, belonging to Gaussian, Inc.
  
 This software is provided under written license and may be
 used, copied, transmitted, or stored only in accord with that
 written license.
  
 The following legend is applicable only to US Government
 contracts under FAR:
  
                    RESTRICTED RIGHTS LEGEND
  
 Use, reproduction and disclosure by the US Government is
 subject to restrictions as set forth in subparagraphs (a)
 and (c) of the Commercial Computer Software - Restricted
 Rights clause in FAR 52.227-19.
  
 Gaussian, Inc.
 340 Quinnipiac St., Bldg. 40, Wallingford CT 06492
  
  
 ---------------------------------------------------------------
 Warning -- This program may not be used in any manner that
 competes with the business of Gaussian, Inc. or will provide
 assistance to any competitor of Gaussian, Inc.  The licensee
 of this program is prohibited from giving any competitor of
 Gaussian, Inc. access to this program.  By using this program,
 the user acknowledges that Gaussian, Inc. is engaged in the
 business of creating and licensing software in the field of
 computational chemistry and represents and warrants to the
 licensee that it is not a competitor of Gaussian, Inc. and that
 it will not use this program in any manner prohibited above.
 ---------------------------------------------------------------
  

 Cite this work as:
 Gaussian 09, Revision D.01,
 M. J. Frisch, G. W. Trucks, H. B. Schlegel, G. E. Scuseria, 
 M. A. Robb, J. R. Cheeseman, G. Scalmani, V. Barone, B. Mennucci, 
 G. A. Petersson, H. Nakatsuji, M. Caricato, X. Li, H. P. Hratchian, 
 A. F. Izmaylov, J. Bloino, G. Zheng, J. L. Sonnenberg, M. Hada, 
 M. Ehara, K. Toyota, R. Fukuda, J. Hasegawa, M. Ishida, T. Nakajima, 
 Y. Honda, O. Kitao, H. Nakai, T. Vreven, J. A. Montgomery, Jr., 
 J. E. Peralta, F. Ogliaro, M. Bearpark, J. J. Heyd, E. Brothers, 
 K. N. Kudin, V. N. Staroverov, T. Keith, R. Kobayashi, J. Normand, 
 K. Raghavachari, A. Rendell, J. C. Burant, S. S. Iyengar, J. Tomasi, 
 M. Cossi, N. Rega, J. M. Millam, M. Klene, J. E. Knox, J. B. Cross, 
 V. Bakken, C. Adamo, J. Jaramillo, R. Gomperts, R. E. Stratmann, 
 O. Yazyev, A. J. Austin, R. Cammi, C. Pomelli, J. W. Ochterski, 
 R. L. Martin, K. Morokuma, V. G. Zakrzewski, G. A. Voth, 
 P. Salvador, J. J. Dannenberg, S. Dapprich, A. D. Daniels, 
 O. Farkas, J. B. Foresman, J. V. Ortiz, J. Cioslowski, 
 and D. J. Fox, Gaussian, Inc., Wallingford CT, 2013.
 
 ******************************************
 Gaussian 09:  EM64L-G09RevD.01 24-Apr-2013
                13-Oct-2014 
 ******************************************
 %NProcShared=12
 Will use up to   12 processors via shared memory.
 %Mem=10GB
 %chk=tube.chk
 ----------------------------------------------------------
 # sp ub3lyp/6-311++G* EmpiricalDispersion=GD3BJ guess=read
 ----------------------------------------------------------
 1/38=1/1;
 2/12=2,17=6,18=5,40=1/2;
 3/5=4,6=6,7=1011,11=2,16=1,25=1,30=1,74=-5,116=2,124=41/1,2,3;
 4/5=1/1;
 5/5=2,38=6/2;
 6/7=2,8=2,9=2,10=2,28=1/1;
 99/5=1,9=1/99;
 ------------------
 Single point No 03
 ------------------
 Symbolic Z-matrix:
 Charge =  0 Multiplicity = 1
 6                    -3.67842  -0.68439   0.01407 
 6                    -2.46261  -1.42139   0.01022 
 6                    -1.2338   -0.71223   0.00459 
 6                    -1.2339    0.71254   0.00425 
 6                    -2.46252   1.42188   0.00996 
 6                    -3.67842   0.68524   0.01396 
 6                     0.00005  -1.42467   0.00389 
 6                    -0.00005   1.42467   0.00389 
 6                     1.2338    0.71223   0.00459 
 6                     1.2339   -0.71254   0.00425 
 6                     2.46261   1.42139   0.01022 
 6                     2.43228   2.84278   0.01339 
 6                     1.2461    3.52756   0.0129 
 6                    -0.0001    2.84323   0.00932 
 6                    -1.24616   3.52783   0.01284 
 6                    -2.43238   2.84319   0.01321 
 1                    -3.37364   3.38434   0.01696 
 1                    -1.24415   4.61356   0.01632 
 1                    -4.61775  -1.22886   0.01785 
 1                    -4.61762   1.22996   0.01774 
 1                     3.37355   3.38396   0.01704 
 1                     1.24434   4.61332   0.01627 
 6                    -2.43228  -2.84278   0.01339 
 6                    -1.2461   -3.52756   0.0129 
 6                     0.0001   -2.84323   0.00932 
 1                    -3.37355  -3.38396   0.01704 
 1                    -1.24434  -4.61332   0.01627 
 6                     1.24616  -3.52783   0.01284 
 6                     2.43238  -2.84319   0.01321 
 6                     2.46252  -1.42188   0.00996 
 1                     1.24415  -4.61356   0.01632 
 1                     3.37364  -3.38434   0.01696 
 6                     3.67842   0.68439   0.01407 
 1                     4.61775   1.22886   0.01785 
 6                     3.67842  -0.68524   0.01396 
 1                     4.61762  -1.22996   0.01774 
 1                     0.34706   0.13096   2.37106 
 1                    -0.34706  -0.13096   2.37106 
 
                          Input orientation:                          
 ---------------------------------------------------------------------
 Center     Atomic      Atomic             Coordinates (Angstroms)
 Number     Number       Type             X           Y           Z
 ---------------------------------------------------------------------
      1          6           0       -3.678422   -0.684390    0.014072
      2          6           0       -2.462606   -1.421394    0.010223
      3          6           0       -1.233798   -0.712228    0.004589
      4          6           0       -1.233899    0.712536    0.004252
      5          6           0       -2.462518    1.421877    0.009963
      6          6           0       -3.678423    0.685237    0.013960
      7          6           0        0.000051   -1.424670    0.003888
      8          6           0       -0.000051    1.424670    0.003888
      9          6           0        1.233798    0.712228    0.004589
     10          6           0        1.233899   -0.712536    0.004252
     11          6           0        2.462606    1.421394    0.010223
     12          6           0        2.432280    2.842778    0.013392
     13          6           0        1.246103    3.527562    0.012896
     14          6           0       -0.000095    2.843231    0.009323
     15          6           0       -1.246157    3.527834    0.012836
     16          6           0       -2.432382    2.843193    0.013214
     17          1           0       -3.373635    3.384340    0.016957
     18          1           0       -1.244149    4.613563    0.016317
     19          1           0       -4.617753   -1.228859    0.017848
     20          1           0       -4.617620    1.229959    0.017735
     21          1           0        3.373550    3.383957    0.017040
     22          1           0        1.244343    4.613318    0.016271
     23          6           0       -2.432280   -2.842778    0.013392
     24          6           0       -1.246103   -3.527562    0.012896
     25          6           0        0.000095   -2.843231    0.009323
     26          1           0       -3.373550   -3.383957    0.017040
     27          1           0       -1.244343   -4.613318    0.016271
     28          6           0        1.246157   -3.527834    0.012836
     29          6           0        2.432382   -2.843193    0.013214
     30          6           0        2.462518   -1.421877    0.009963
     31          1           0        1.244149   -4.613563    0.016317
     32          1           0        3.373635   -3.384340    0.016957
     33          6           0        3.678422    0.684390    0.014072
     34          1           0        4.617753    1.228859    0.017848
     35          6           0        3.678423   -0.685237    0.013960
     36          1           0        4.617620   -1.229959    0.017735
     37          1           0        0.347056    0.130964    2.371056
     38          1           0       -0.347056   -0.130964    2.371056
 ---------------------------------------------------------------------
                    Distance matrix (angstroms):
                    1          2          3          4          5
     1  C    0.000000
     2  C    1.421759   0.000000
     3  C    2.444801   1.418773   0.000000
     4  C    2.815527   2.462400   1.424764   0.000000
     5  C    2.432036   2.843271   2.462557   1.418697   0.000000
     6  C    1.369627   2.432307   2.815881   2.444696   1.421647
     7  C    3.752237   2.462667   1.424766   2.467850   3.763923
     8  C    4.240124   3.763549   2.467482   1.424611   2.462476
     9  C    5.106911   4.267995   2.849229   2.467697   3.763826
    10  C    4.912411   3.763863   2.467697   2.849712   4.268401
    11  C    6.492039   5.686753   4.267995   3.763863   4.925124
    12  C    7.055607   6.491770   5.106689   4.240151   5.096864
    13  C    6.480084   6.184391   4.911802   3.751647   4.264714
    14  C    5.096491   4.924529   3.763421   2.462145   2.843198
    15  C    4.864026   5.096529   4.240088   2.815338   2.431994
    16  C    3.741184   4.264695   3.752026   2.444615   1.421639
    17  H    4.080131   4.891329   4.621788   3.423035   2.163665
    18  H    5.830437   6.156735   5.325814   3.901059   3.416332
    19  H    1.085727   2.163744   3.423191   3.901239   3.416358
    20  H    2.132332   3.416696   3.901604   3.423080   2.163645
    21  H    8.141361   7.559905   6.164945   5.325903   6.157069
    22  H    7.231828   7.082320   5.873905   4.621464   4.891437
    23  C    2.492290   1.421711   2.444520   3.751861   4.264764
    24  C    3.741631   2.432248   2.815373   4.240124   5.096726
    25  C    4.265220   2.843680   2.462456   3.763807   4.924998
    26  H    2.716729   2.163682   3.422985   4.621637   4.891428
    27  H    4.621820   3.416516   3.901122   5.325878   6.156912
    28  C    5.686533   4.265210   3.752050   4.912381   6.184975
    29  C    6.480923   5.097296   4.240514   5.107338   6.492371
    30  C    6.185067   4.925124   3.763826   4.268401   5.687083
    31  H    6.298421   4.891831   4.621772   5.874368   7.082793
    32  H    7.551241   6.157509   5.326235   6.165543   7.560453
    33  C    7.483095   6.492039   5.106911   4.912411   6.185067
    34  H    8.513933   7.560118   6.165115   5.874403   7.082906
    35  C    7.356845   6.184996   4.912304   5.107325   6.492388
    36  H    8.313962   7.082818   5.874292   6.165529   7.560466
    37  H    4.735467   3.984664   2.968205   2.905066   3.890363
    38  H    4.118210   3.422615   2.593134   2.664534   3.530050
                    6          7          8          9         10
     6  C    0.000000
     7  C    4.240634   0.000000
     8  C    3.751971   2.849340   0.000000
     9  C    4.912304   2.467482   1.424766   0.000000
    10  C    5.107325   1.424611   2.467850   1.424764   0.000000
    11  C    6.184996   3.763549   2.462667   1.418773   2.462400
    12  C    6.480407   4.911918   2.815556   2.444520   3.751861
    13  C    5.685927   5.106597   2.444409   2.815373   4.240124
    14  C    4.264629   4.267904   1.418571   2.462456   3.763807
    15  C    3.741160   5.106898   2.444618   3.752050   4.912381
    16  C    2.491865   4.912379   2.815764   4.240514   5.107338
    17  H    2.716259   5.874394   3.901480   5.326235   6.165543
    18  H    4.621411   6.165099   3.423006   4.621772   5.874368
    19  H    2.132163   4.621975   5.325841   6.165115   5.874403
    20  H    1.085738   5.326362   4.621693   5.874292   6.165529
    21  H    7.550723   5.873973   3.901303   3.422985   4.621637
    22  H    6.297893   6.164878   3.422886   3.901122   5.325878
    23  C    3.741626   2.815556   4.911918   5.106689   4.240151
    24  C    4.864551   2.444409   5.106597   4.911802   3.751647
    25  C    5.097215   1.418571   4.267904   3.763421   2.462145
    26  H    4.080600   3.901303   5.873973   6.164945   5.325903
    27  H    5.830904   3.422886   6.164878   5.873905   4.621464
    28  C    6.480853   2.444618   5.106898   4.240088   2.815338
    29  C    7.056327   2.815764   4.912379   3.752026   2.444615
    30  C    6.492388   2.462476   3.763923   2.462557   1.418697
    31  H    7.232496   3.423006   6.165099   5.325814   3.901059
    32  H    8.142051   3.901480   5.874394   4.621788   3.423035
    33  C    7.356845   4.240124   3.752237   2.444801   2.815527
    34  H    8.313969   5.325841   4.621975   3.423191   3.901239
    35  C    7.483407   3.751971   4.240634   2.815881   2.444696
    36  H    8.514242   4.621693   5.326362   3.901604   3.423080
    37  H    4.697617   2.853751   2.719861   2.593134   2.664534
    38  H    4.161741   2.719861   2.853751   2.968205   2.905066
                   11         12         13         14         15
    11  C    0.000000
    12  C    1.421711   0.000000
    13  C    2.432248   1.369652   0.000000
    14  C    2.843680   2.432378   1.421735   0.000000
    15  C    4.265210   3.741684   2.492260   1.421747   0.000000
    16  C    5.097296   4.864662   3.741606   2.432290   1.369622
    17  H    6.157509   5.831119   4.621959   3.416669   2.132316
    18  H    4.891831   4.080664   2.716756   2.163746   1.085736
    19  H    7.560118   8.141327   7.550389   6.156684   5.830421
    20  H    7.082818   7.232032   6.297797   4.891243   4.080076
    21  H    2.163682   1.085761   2.132292   3.416713   4.621949
    22  H    3.416516   2.132138   1.085763   2.163766   2.716777
    23  C    6.491770   7.482613   7.356068   6.184354   6.480091
    24  C    6.184391   7.356068   7.482370   6.491498   7.055396
    25  C    4.924529   6.184354   6.491498   5.686462   6.491812
    26  H    7.559905   8.513513   8.313261   7.082240   7.231782
    27  H    7.082320   8.313299   8.513299   7.559651   8.141153
    28  C    5.096529   6.480091   7.055396   6.491812   7.482919
    29  C    4.264695   5.685971   6.480261   6.184851   7.356741
    30  C    2.843271   4.264764   5.096726   4.924998   6.184975
    31  H    6.156735   7.550410   8.141126   7.559892   8.513752
    32  H    4.891329   6.297870   7.231929   7.082708   8.313883
    33  C    1.421759   2.492290   3.741631   4.265220   5.686533
    34  H    2.163744   2.716808   4.080696   4.891911   6.298472
    35  C    2.432307   3.741626   4.864551   5.097215   6.480853
    36  H    3.416696   4.622004   5.831051   6.157454   7.551192
    37  H    3.422615   4.154597   4.231558   3.613127   4.431507
    38  H    3.984664   4.703874   4.635071   3.813660   4.444816
                   16         17         18         19         20
    16  C    0.000000
    17  H    1.085731   0.000000
    18  H    2.132163   2.458801   0.000000
    19  H    4.621415   4.778016   6.746488   0.000000
    20  H    2.716212   2.487741   4.777979   2.458818   0.000000
    21  H    5.831062   6.747185   4.778606   9.227079   8.276382
    22  H    4.080644   4.778714   2.488492   8.276183   6.768289
    23  C    5.685971   6.297870   7.550410   2.716808   4.622004
    24  C    6.480261   7.231929   8.141126   4.080696   5.831051
    25  C    6.184851   7.082708   7.559892   4.891911   6.157454
    26  H    6.297873   6.768297   8.276151   2.488471   4.778696
    27  H    7.550563   8.276256   9.226881   4.778542   6.747065
    28  C    7.356741   8.313883   8.513752   6.298472   7.551192
    29  C    7.483376   8.514224   8.313850   7.232600   8.142058
    30  C    6.492371   7.560453   7.082793   7.082906   7.560466
    31  H    8.313850   9.235279   9.556751   6.768908   8.276901
    32  H    8.514224   9.557232   9.235279   8.276979   9.227779
    33  C    6.480923   7.551241   6.298421   8.513933   8.313962
    34  H    7.232600   8.276979   6.768908   9.556932   9.235373
    35  C    7.056327   8.142051   7.232496   8.313969   8.514242
    36  H    8.142058   9.227779   8.276901   9.235373   9.557241
    37  H    4.543224   5.474466   5.307582   5.660038   5.603028
    38  H    4.330544   5.201858   5.372160   4.998181   5.062405
                   21         22         23         24         25
    21  H    0.000000
    22  H    2.458628   0.000000
    23  C    8.513513   8.313299   0.000000
    24  C    8.313261   8.513299   1.369652   0.000000
    25  C    7.082240   7.559651   2.432378   1.421735   0.000000
    26  H    9.556569   9.234790   1.085761   2.132292   3.416713
    27  H    9.234790   9.556378   2.132138   1.085763   2.163766
    28  C    7.231782   8.141153   3.741684   2.492260   1.421747
    29  C    6.297873   7.550563   4.864662   3.741606   2.432290
    30  C    4.891428   6.156912   5.096864   4.264714   2.843198
    31  H    8.276151   9.226881   4.080664   2.716756   2.163746
    32  H    6.768297   8.276256   5.831119   4.621959   3.416669
    33  C    2.716729   4.621820   7.055607   6.480084   5.096491
    34  H    2.488471   4.778542   8.141327   7.550389   6.156684
    35  C    4.080600   5.830904   6.480407   5.685927   4.264629
    36  H    4.778696   6.747065   7.232032   6.297797   4.891243
    37  H    5.028222   5.142143   4.703874   4.635071   3.813660
    38  H    5.633735   5.530441   4.154597   4.231558   3.613127
                   26         27         28         29         30
    26  H    0.000000
    27  H    2.458628   0.000000
    28  C    4.621949   2.716777   0.000000
    29  C    5.831062   4.080644   1.369622   0.000000
    30  C    6.157069   4.891437   2.431994   1.421639   0.000000
    31  H    4.778606   2.488492   1.085736   2.132163   3.416332
    32  H    6.747185   4.778714   2.132316   1.085731   2.163665
    33  C    8.141361   7.231828   4.864026   3.741184   2.432036
    34  H    9.227079   8.276183   5.830421   4.621415   3.416358
    35  C    7.550723   6.297893   3.741160   2.491865   1.421647
    36  H    8.276382   6.768289   4.080076   2.716212   2.163645
    37  H    5.633735   5.530441   4.444816   4.330544   3.530050
    38  H    5.028222   5.142143   4.431507   4.543224   3.890363
                   31         32         33         34         35
    31  H    0.000000
    32  H    2.458801   0.000000
    33  C    5.830437   4.080131   0.000000
    34  H    6.746488   4.778016   1.085727   0.000000
    35  C    4.621411   2.716259   1.369627   2.132163   0.000000
    36  H    4.777979   2.487741   2.132332   2.458818   1.085738
    37  H    5.372160   5.201858   4.118210   4.998181   4.161741
    38  H    5.307582   5.474466   4.735467   5.660038   4.697617
                   36         37         38
    36  H    0.000000
    37  H    5.062405   0.000000
    38  H    5.603028   0.741888   0.000000
 Stoichiometry    C24H14
 Framework group  C2[X(C24H14)]
 Deg. of freedom    55
 Full point group                 C2      NOp   2
 Largest Abelian subgroup         C2      NOp   2
 Largest concise Abelian subgroup C2      NOp   2
                         Standard orientation:                         
 ---------------------------------------------------------------------
 Center     Atomic      Atomic             Coordinates (Angstroms)
 Number     Number       Type             X           Y           Z
 ---------------------------------------------------------------------
      1          6           0        0.347662    3.725360   -0.026547
      2          6           0       -0.693744    2.757446   -0.030396
      3          6           0       -0.347662    1.381542   -0.036030
      4          6           0        1.022816    0.991999   -0.036367
      5          6           0        2.041114    1.979793   -0.030656
      6          6           0        1.665077    3.350800   -0.026659
      7          6           0       -1.370374    0.389565   -0.036731
      8          6           0        1.370374   -0.389565   -0.036731
      9          6           0        0.347662   -1.381542   -0.036030
     10          6           0       -1.022816   -0.991999   -0.036367
     11          6           0        0.693744   -2.757446   -0.030396
     12          6           0        2.069236   -3.116991   -0.027227
     13          6           0        3.052307   -2.163305   -0.027723
     14          6           0        2.734869   -0.777466   -0.031296
     15          6           0        3.734143    0.233872   -0.027783
     16          6           0        3.400006    1.562110   -0.027405
     17          1           0        4.177935    2.319490   -0.023662
     18          1           0        4.777933   -0.064981   -0.024302
     19          1           0        0.080834    4.777782   -0.022771
     20          1           0        2.445882    4.105225   -0.022884
     21          1           0        2.332369   -4.170379   -0.023579
     22          1           0        4.097154   -2.458541   -0.024348
     23          6           0       -2.069236    3.116991   -0.027227
     24          6           0       -3.052307    2.163305   -0.027723
     25          6           0       -2.734869    0.777466   -0.031296
     26          1           0       -2.332369    4.170379   -0.023579
     27          1           0       -4.097154    2.458541   -0.024348
     28          6           0       -3.734143   -0.233872   -0.027783
     29          6           0       -3.400006   -1.562110   -0.027405
     30          6           0       -2.041114   -1.979793   -0.030656
     31          1           0       -4.777933    0.064981   -0.024302
     32          1           0       -4.177935   -2.319490   -0.023662
     33          6           0       -0.347662   -3.725360   -0.026547
     34          1           0       -0.080834   -4.777782   -0.022771
     35          6           0       -1.665077   -3.350800   -0.026659
     36          1           0       -2.445882   -4.105225   -0.022884
     37          1           0        0.031060   -0.369641    2.330437
     38          1           0       -0.031060    0.369641    2.330437
 ---------------------------------------------------------------------
 Rotational constants (GHZ):      0.3322329      0.3321256      0.1673171
 Standard basis: 6-311++G(d) (5D, 7F)
 There are   304 symmetry adapted cartesian basis functions of A   symmetry.
 There are   304 symmetry adapted cartesian basis functions of B   symmetry.
 There are   292 symmetry adapted basis functions of A   symmetry.
 There are   292 symmetry adapted basis functions of B   symmetry.
   584 basis functions,   948 primitive gaussians,   608 cartesian basis functions
    79 alpha electrons       79 beta electrons
       nuclear repulsion energy      1877.8608540249 Hartrees.
 NAtoms=   38 NActive=   38 NUniq=   19 SFac= 4.00D+00 NAtFMM=   60 NAOKFM=F Big=F
 Integral buffers will be    131072 words long.
 Raffenetti 2 integral format.
 Two-electron integral symmetry is turned on.
 Nuclear repulsion after empirical dispersion term =     1877.7511050529 Hartrees.
 One-electron integrals computed using PRISM.
 NBasis=   584 RedAO= T EigKep=  1.38D-06  NBF=   292   292
 NBsUse=   564 1.00D-06 EigRej=  6.15D-07 NBFU=   282   282
 Initial guess from the checkpoint file:  "tube.chk"
 B after Tr=     0.000000    0.000000    0.000000
         Rot=    1.000000    0.000000    0.000000    0.000000 Ang=   0.00 deg.
 Initial guess orbital symmetries:
 Alpha Orbitals:
       Occupied  (A) (B) (A) (B) (B) (A) (A) (B) (B) (A) (A) (B)
                 (B) (A) (B) (A) (B) (A) (B) (A) (B) (A) (B) (A)
                 (A) (B) (B) (A) (A) (A) (B) (B) (B) (B) (A) (A)
                 (A) (A) (B) (B) (A) (A) (B) (B) (B) (B) (A) (A)
                 (A) (B) (B) (A) (A) (A) (A) (B) (B) (B) (A) (A)
                 (A) (B) (B) (A) (B) (B) (B) (B) (A) (A) (A) (A)
                 (A) (B) (B) (B) (B) (A) (A)
       Virtual   (B) (B) (A) (A) (A) (A) (A) (B) (B) (B) (A) (A)
                 (B) (B) (B) (B) (B) (A) (A) (B) (B) (A) (A) (A)
                 (A) (A) (B) (B) (B) (A) (A) (A) (B) (B) (B) (A)
                 (A) (A) (A) (B) (B) (B) (B) (A) (A) (B) (A) (B)
                 (A) (A) (B) (B) (B) (A) (A) (B) (A) (A) (A) (B)
                 (B) (A) (B) (B) (B) (B) (B) (A) (B) (B) (B) (A)
                 (A) (B) (A) (A) (A) (A) (A) (B) (A) (A) (A) (B)
                 (B) (B) (A) (A) (A) (B) (B) (B) (A) (B) (B) (A)
                 (B) (A) (A) (A) (B) (A) (A) (B) (B) (B) (B) (A)
                 (B) (B) (A) (A) (A) (A) (B) (A) (A) (B) (B) (B)
                 (B) (A) (B) (B) (A) (A) (A) (B) (A) (B) (B) (A)
                 (B) (A) (A) (B) (A) (B) (B) (A) (A) (B) (B) (B)
                 (B) (B) (B) (A) (A) (A) (B) (A) (B) (A) (A) (B)
                 (A) (A) (B) (B) (B) (A) (A) (B) (A) (B) (A) (B)
                 (B) (A) (A) (A) (A) (B) (B) (A) (B) (A) (B) (B)
                 (B) (A) (A) (A) (B) (A) (A) (B) (B) (B) (A) (A)
                 (A) (A) (B) (B) (A) (B) (B) (A) (A) (B) (B) (B)
                 (A) (A) (A) (A) (A) (B) (B) (B) (B) (B) (B) (B)
                 (A) (A) (B) (B) (B) (B) (B) (A) (A) (A) (A) (A)
                 (B) (A) (B) (B) (A) (B) (A) (A) (A) (A) (B) (A)
                 (B) (B) (A) (A) (B) (A) (A) (B) (B) (B) (B) (A)
                 (A) (A) (B) (B) (B) (A) (B) (B) (A) (A) (A) (A)
                 (A) (B) (B) (B) (A) (A) (A) (B) (B) (A) (A) (B)
                 (B) (A) (B) (A) (A) (B) (A) (B) (B) (B) (B) (A)
                 (A) (A) (A) (B) (A) (B) (B) (B) (B) (A) (A) (A)
                 (A) (B) (B) (A) (A) (A) (A) (B) (B) (A) (B) (B)
                 (B) (A) (A) (B) (B) (B) (A) (A) (A) (B) (B) (A)
                 (A) (B) (B) (B) (A) (A) (A) (A) (B) (B) (B) (B)
                 (B) (B) (A) (A) (A) (A) (A) (B) (A) (A) (B) (B)
                 (A) (B) (B) (B) (A) (A) (A) (B) (B) (B) (A) (B)
                 (A) (A) (B) (B) (A) (B) (B) (A) (A) (B) (A) (A)
                 (B) (B) (A) (A) (B) (A) (B) (B) (A) (A) (B) (A)
                 (B) (B) (A) (A) (B) (B) (B) (A) (A) (A) (B) (A)
                 (A) (A) (A) (A) (A) (A) (A) (A) (A) (A) (A) (A)
                 (A) (A) (A) (A) (A) (A) (A) (A) (A) (A) (A) (A)
                 (A) (A) (A) (A) (A) (A) (A) (A) (A) (A) (A) (A)
                 (A) (A) (A) (A) (A) (A) (A) (A) (B) (B) (B) (B)
                 (B) (B) (B) (B) (B) (B) (B) (B) (B) (B) (B) (B)
                 (B) (B) (B) (B) (B) (B) (B) (B) (B) (B) (B) (B)
                 (B) (B) (B) (B) (B) (B) (B) (B) (B) (B) (B) (B)
                 (B) (B) (B) (B) (B)
 Beta  Orbitals:
       Occupied  (A) (B) (A) (B) (B) (A) (A) (B) (B) (A) (A) (B)
                 (B) (A) (B) (A) (B) (A) (B) (A) (B) (A) (B) (A)
                 (A) (B) (B) (A) (A) (A) (B) (B) (B) (B) (A) (A)
                 (A) (A) (B) (B) (A) (A) (B) (B) (B) (B) (A) (A)
                 (A) (B) (B) (A) (A) (A) (A) (B) (B) (B) (A) (A)
                 (A) (B) (B) (A) (B) (B) (B) (B) (A) (A) (A) (A)
                 (A) (B) (B) (B) (B) (A) (A)
       Virtual   (B) (B) (A) (A) (A) (A) (A) (B) (B) (B) (A) (A)
                 (B) (B) (B) (B) (B) (A) (A) (B) (B) (A) (A) (A)
                 (A) (A) (B) (B) (B) (A) (A) (A) (B) (B) (B) (A)
                 (A) (A) (A) (B) (B) (B) (B) (A) (A) (B) (A) (B)
                 (A) (A) (B) (B) (B) (A) (A) (B) (A) (A) (A) (B)
                 (B) (A) (B) (B) (B) (B) (B) (A) (B) (B) (B) (A)
                 (A) (B) (A) (A) (A) (A) (A) (B) (A) (A) (A) (B)
                 (B) (B) (A) (A) (A) (B) (B) (B) (A) (B) (B) (A)
                 (B) (A) (A) (A) (B) (A) (A) (B) (B) (B) (B) (A)
                 (B) (B) (A) (A) (A) (A) (B) (A) (A) (B) (B) (B)
                 (B) (A) (B) (B) (A) (A) (A) (B) (A) (B) (B) (A)
                 (B) (A) (A) (B) (A) (B) (B) (A) (A) (B) (B) (B)
                 (B) (B) (B) (A) (A) (A) (B) (A) (B) (A) (A) (B)
                 (A) (A) (B) (B) (B) (A) (A) (B) (A) (B) (A) (B)
                 (B) (A) (A) (A) (A) (B) (B) (A) (B) (A) (B) (B)
                 (B) (A) (A) (A) (B) (A) (A) (B) (B) (B) (A) (A)
                 (A) (A) (B) (B) (A) (B) (B) (A) (A) (B) (B) (B)
                 (A) (A) (A) (A) (A) (B) (B) (B) (B) (B) (B) (B)
                 (A) (A) (B) (B) (B) (B) (B) (A) (A) (A) (A) (A)
                 (B) (A) (B) (B) (A) (B) (A) (A) (A) (A) (B) (A)
                 (B) (B) (A) (A) (B) (A) (A) (B) (B) (B) (B) (A)
                 (A) (A) (B) (B) (B) (A) (B) (B) (A) (A) (A) (A)
                 (A) (B) (B) (B) (A) (A) (A) (B) (B) (A) (A) (B)
                 (B) (A) (B) (A) (A) (B) (A) (B) (B) (B) (B) (A)
                 (A) (A) (A) (B) (A) (B) (B) (B) (B) (A) (A) (A)
                 (A) (B) (B) (A) (A) (A) (A) (B) (B) (A) (B) (B)
                 (B) (A) (A) (B) (B) (B) (A) (A) (A) (B) (B) (A)
                 (A) (B) (B) (B) (A) (A) (A) (A) (B) (B) (B) (B)
                 (B) (B) (A) (A) (A) (A) (A) (B) (A) (A) (B) (B)
                 (A) (B) (B) (B) (A) (A) (A) (B) (B) (B) (A) (B)
                 (A) (A) (B) (B) (A) (B) (B) (A) (A) (B) (A) (A)
                 (B) (B) (A) (A) (B) (A) (B) (B) (A) (A) (B) (A)
                 (B) (B) (A) (A) (B) (B) (B) (A) (A) (A) (B) (A)
                 (A) (A) (A) (A) (A) (A) (A) (A) (A) (A) (A) (A)
                 (A) (A) (A) (A) (A) (A) (A) (A) (A) (A) (A) (A)
                 (A) (A) (A) (A) (A) (A) (A) (A) (A) (A) (A) (A)
                 (A) (A) (A) (A) (A) (A) (A) (A) (B) (B) (B) (B)
                 (B) (B) (B) (B) (B) (B) (B) (B) (B) (B) (B) (B)
                 (B) (B) (B) (B) (B) (B) (B) (B) (B) (B) (B) (B)
                 (B) (B) (B) (B) (B) (B) (B) (B) (B) (B) (B) (B)
                 (B) (B) (B) (B) (B)
 Initial guess <Sx>= 0.0000 <Sy>= 0.0000 <Sz>= 0.0000 <S**2>= 0.0000 S= 0.0000
 Requested convergence on RMS density matrix=1.00D-08 within 128 cycles.
 Requested convergence on MAX density matrix=1.00D-06.
 Requested convergence on             energy=1.00D-06.
 No special actions if energy rises.
 SCF Done:  E(UB3LYP) =  -923.359918210     A.U. after   10 cycles
            NFock= 10  Conv=0.84D-08     -V/T= 2.0044
 <Sx>= 0.0000 <Sy>= 0.0000 <Sz>= 0.0000 <S**2>= 0.0000 S= 0.0000
 <L.S>= 0.000000000000E+00
 Annihilation of the first spin contaminant:
 S**2 before annihilation     0.0000,   after     0.0000

 **********************************************************************

            Population analysis using the SCF density.

 **********************************************************************

 Orbital symmetries:
 Alpha Orbitals:
       Occupied  (A) (B) (A) (B) (B) (A) (B) (A) (B) (A) (A) (B)
                 (B) (A) (B) (A) (B) (A) (B) (A) (B) (A) (B) (A)
                 (A) (B) (B) (A) (A) (A) (B) (B) (B) (B) (A) (A)
                 (A) (A) (B) (B) (A) (A) (B) (B) (B) (B) (A) (A)
                 (A) (B) (B) (A) (A) (A) (A) (B) (B) (B) (A) (A)
                 (A) (B) (B) (A) (B) (B) (B) (B) (A) (A) (A) (A)
                 (A) (B) (B) (B) (B) (A) (A)
       Virtual   (B) (B) (A) (A) (A) (A) (B) (B) (A) (A) (A) (B)
                 (B) (B) (A) (B) (A) (B) (A) (A) (B) (B) (B) (B)
                 (A) (A) (A) (B) (B) (A) (A) (A) (A) (B) (B) (B)
                 (B) (A) (A) (A) (A) (B) (B) (B) (B) (A) (A) (A)
                 (A) (B) (B) (B) (B) (B) (A) (B) (B) (B) (B) (A)
                 (A) (A) (A) (A) (B) (B) (A) (A) (A) (A) (A) (B)
                 (B) (A) (A) (B) (A) (B) (B) (A) (A) (A) (A) (B)
                 (B) (B) (B) (B) (A) (A) (B) (B) (A) (B) (B) (B)
                 (A) (A) (B) (B) (A) (A) (A) (B) (A) (B) (B) (B)
                 (B) (A) (A) (A) (A) (B) (A) (A) (A) (B) (B) (B)
                 (B) (A) (B) (A) (A) (B) (B) (A) (A) (A) (B) (B)
                 (A) (B) (B) (B) (B) (B) (A) (A) (A) (A) (A) (B)
                 (B) (B) (B) (A) (A) (A) (A) (B) (A) (A) (A) (A)
                 (B) (B) (B) (B) (A) (B) (B) (B) (B) (B) (A) (A)
                 (A) (A) (A) (B) (B) (B) (A) (B) (A) (A) (B) (A)
                 (A) (A) (B) (B) (B) (A) (A) (B) (B) (A) (B) (A)
                 (A) (A) (A) (B) (B) (B) (A) (B) (A) (A) (A) (B)
                 (B) (B) (A) (B) (B) (A) (B) (B) (A) (A) (B) (A)
                 (A) (A) (B) (B) (A) (B) (B) (A) (B) (B) (A) (A)
                 (B) (A) (A) (B) (B) (A) (A) (B) (B) (B) (B) (A)
                 (B) (A) (B) (A) (A) (B) (A) (A) (A) (B) (B) (B)
                 (A) (B) (B) (B) (A) (A) (B) (A) (A) (A) (A) (B)
                 (B) (A) (A) (B) (B) (B) (B) (A) (A) (B) (B) (A)
                 (A) (B) (A) (A) (B) (A) (A) (A) (B) (B) (B) (A)
                 (B) (A) (A) (B) (B) (B) (A) (A) (B) (A) (A) (A)
                 (B) (B) (B) (B) (B) (B) (A) (A) (B) (B) (B) (A)
                 (A) (A) (A) (B) (B) (A) (A) (B) (B) (B) (A) (A)
                 (A) (A) (B) (B) (B) (B) (A) (A) (A) (A) (B) (B)
                 (A) (A) (B) (B) (B) (A) (A) (A) (B) (B) (B) (B)
                 (A) (B) (A) (A) (A) (A) (B) (B) (B) (A) (A) (A)
                 (A) (A) (B) (B) (A) (B) (B) (A) (A) (A) (B) (B)
                 (B) (B) (A) (B) (B) (A) (A) (A) (A) (B) (B) (A)
                 (B) (A) (A) (B) (B) (B) (A) (A) (A) (B) (A) (B)
                 (A) (A) (B) (A) (B) (B) (B) (A) (A) (B) (B) (A)
                 (B) (B) (A) (A) (B) (B) (A) (A) (B) (B) (A) (A)
                 (A) (A) (B) (B) (B) (B) (B) (B) (A) (A) (A) (B)
                 (A) (A) (B) (B) (A) (A) (A) (B) (B) (B) (A) (A)
                 (A) (B) (B) (B) (A) (B) (A) (A) (B) (B) (A) (B)
                 (B) (A) (A) (B) (A) (A) (B) (B) (A) (A) (B) (A)
                 (B) (B) (A) (A) (B) (A) (B) (B) (A) (A) (B) (A)
                 (A) (B) (B) (A) (B)
 Beta  Orbitals:
       Occupied  (A) (B) (A) (B) (B) (A) (B) (A) (B) (A) (A) (B)
                 (B) (A) (B) (A) (B) (A) (B) (A) (B) (A) (B) (A)
                 (A) (B) (B) (A) (A) (A) (B) (B) (B) (B) (A) (A)
                 (A) (A) (B) (B) (A) (A) (B) (B) (B) (B) (A) (A)
                 (A) (B) (B) (A) (A) (A) (A) (B) (B) (B) (A) (A)
                 (A) (B) (B) (A) (B) (B) (B) (B) (A) (A) (A) (A)
                 (A) (B) (B) (B) (B) (A) (A)
       Virtual   (B) (B) (A) (A) (A) (A) (B) (B) (A) (A) (A) (B)
                 (B) (B) (A) (B) (A) (B) (A) (A) (B) (B) (B) (B)
                 (A) (A) (A) (B) (B) (A) (A) (A) (A) (B) (B) (B)
                 (B) (A) (A) (A) (A) (B) (B) (B) (B) (A) (A) (A)
                 (A) (B) (B) (B) (B) (B) (A) (B) (B) (B) (B) (A)
                 (A) (A) (A) (A) (B) (B) (A) (A) (A) (A) (A) (B)
                 (B) (A) (A) (B) (A) (B) (B) (A) (A) (A) (A) (B)
                 (B) (B) (B) (B) (A) (A) (B) (B) (A) (B) (B) (B)
                 (A) (A) (B) (B) (A) (A) (A) (B) (A) (B) (B) (B)
                 (B) (A) (A) (A) (A) (B) (A) (A) (A) (B) (B) (B)
                 (B) (A) (B) (A) (A) (B) (B) (A) (A) (A) (B) (B)
                 (A) (B) (B) (B) (B) (B) (A) (A) (A) (A) (A) (B)
                 (B) (B) (B) (A) (A) (A) (A) (B) (A) (A) (A) (A)
                 (B) (B) (B) (B) (A) (B) (B) (B) (B) (B) (A) (A)
                 (A) (A) (A) (B) (B) (B) (A) (B) (A) (A) (B) (A)
                 (A) (A) (B) (B) (B) (A) (A) (B) (B) (A) (B) (A)
                 (A) (A) (A) (B) (B) (B) (A) (B) (A) (A) (A) (B)
                 (B) (B) (A) (B) (B) (A) (B) (B) (A) (A) (B) (A)
                 (A) (A) (B) (B) (A) (B) (B) (A) (B) (B) (A) (A)
                 (B) (A) (A) (B) (B) (A) (A) (B) (B) (B) (B) (A)
                 (B) (A) (B) (A) (A) (B) (A) (A) (A) (B) (B) (B)
                 (A) (B) (B) (B) (A) (A) (B) (A) (A) (A) (A) (B)
                 (B) (A) (A) (B) (B) (B) (B) (A) (A) (B) (B) (A)
                 (A) (B) (A) (A) (B) (A) (A) (A) (B) (B) (B) (A)
                 (B) (A) (A) (B) (B) (B) (A) (A) (B) (A) (A) (A)
                 (B) (B) (B) (B) (B) (B) (A) (A) (B) (B) (B) (A)
                 (A) (A) (A) (B) (B) (A) (A) (B) (B) (B) (A) (A)
                 (A) (A) (B) (B) (B) (B) (A) (A) (A) (A) (B) (B)
                 (A) (A) (B) (B) (B) (A) (A) (A) (B) (B) (B) (B)
                 (A) (B) (A) (A) (A) (A) (B) (B) (B) (A) (A) (A)
                 (A) (A) (B) (B) (A) (B) (B) (A) (A) (A) (B) (B)
                 (B) (B) (A) (B) (B) (A) (A) (A) (A) (B) (B) (A)
                 (B) (A) (A) (B) (B) (B) (A) (A) (A) (B) (A) (B)
                 (A) (A) (B) (A) (B) (B) (B) (A) (A) (B) (B) (A)
                 (B) (B) (A) (A) (B) (B) (A) (A) (B) (B) (A) (A)
                 (A) (A) (B) (B) (B) (B) (B) (B) (A) (A) (A) (B)
                 (A) (A) (B) (B) (A) (A) (A) (B) (B) (B) (A) (A)
                 (A) (B) (B) (B) (A) (B) (A) (A) (B) (B) (A) (B)
                 (B) (A) (A) (B) (A) (A) (B) (B) (A) (A) (B) (A)
                 (B) (B) (A) (A) (B) (A) (B) (B) (A) (A) (B) (A)
                 (A) (B) (B) (A) (B)
 The electronic state is 1-A.
 Alpha  occ. eigenvalues --  -10.19205 -10.19202 -10.19179 -10.19177 -10.19167
 Alpha  occ. eigenvalues --  -10.19164 -10.19152 -10.19151 -10.19130 -10.19115
 Alpha  occ. eigenvalues --  -10.19094 -10.19083 -10.18373 -10.18373 -10.18366
 Alpha  occ. eigenvalues --  -10.18365 -10.18352 -10.18351 -10.18309 -10.18309
 Alpha  occ. eigenvalues --  -10.18301 -10.18301 -10.18287 -10.18287  -0.91491
 Alpha  occ. eigenvalues --   -0.87828  -0.87807  -0.83123  -0.83122  -0.81487
 Alpha  occ. eigenvalues --   -0.78395  -0.76901  -0.75211  -0.75187  -0.72016
 Alpha  occ. eigenvalues --   -0.72013  -0.64357  -0.64355  -0.64023  -0.64021
 Alpha  occ. eigenvalues --   -0.63300  -0.57102  -0.56359  -0.54746  -0.54737
 Alpha  occ. eigenvalues --   -0.54494  -0.52453  -0.48389  -0.48380  -0.46742
 Alpha  occ. eigenvalues --   -0.46734  -0.46411  -0.46407  -0.45287  -0.43647
 Alpha  occ. eigenvalues --   -0.43002  -0.42998  -0.42656  -0.41105  -0.41095
 Alpha  occ. eigenvalues --   -0.40313  -0.39271  -0.39226  -0.38356  -0.38312
 Alpha  occ. eigenvalues --   -0.36915  -0.36904  -0.36899  -0.33831  -0.33828
 Alpha  occ. eigenvalues --   -0.32599  -0.32591  -0.31724  -0.27807  -0.27556
 Alpha  occ. eigenvalues --   -0.26069  -0.25971  -0.21209  -0.21202
 Alpha virt. eigenvalues --   -0.06518  -0.06483  -0.02903  -0.02880  -0.01128
 Alpha virt. eigenvalues --   -0.00751  -0.00254  -0.00222   0.00975   0.00976
 Alpha virt. eigenvalues --    0.01029   0.02547   0.02604   0.03412   0.03481
 Alpha virt. eigenvalues --    0.03877   0.04474   0.04498   0.04605   0.04606
 Alpha virt. eigenvalues --    0.04892   0.05909   0.07250   0.07252   0.07389
 Alpha virt. eigenvalues --    0.07394   0.08461   0.08580   0.09093   0.09398
 Alpha virt. eigenvalues --    0.09490   0.09496   0.09993   0.10115   0.10378
 Alpha virt. eigenvalues --    0.11063   0.11441   0.11618   0.11623   0.11650
 Alpha virt. eigenvalues --    0.11776   0.12143   0.12424   0.12556   0.13373
 Alpha virt. eigenvalues --    0.13565   0.13570   0.14098   0.14101   0.14289
 Alpha virt. eigenvalues --    0.14417   0.14759   0.14841   0.15759   0.15787
 Alpha virt. eigenvalues --    0.16589   0.16709   0.16786   0.17202   0.18310
 Alpha virt. eigenvalues --    0.18337   0.18722   0.18750   0.18826   0.19236
 Alpha virt. eigenvalues --    0.19273   0.19510   0.19517   0.20561   0.20571
 Alpha virt. eigenvalues --    0.21431   0.22003   0.22071   0.22261   0.22271
 Alpha virt. eigenvalues --    0.22451   0.22656   0.22690   0.22710   0.22881
 Alpha virt. eigenvalues --    0.23255   0.23265   0.23729   0.24443   0.24709
 Alpha virt. eigenvalues --    0.24862   0.25771   0.26648   0.27157   0.27163
 Alpha virt. eigenvalues --    0.27557   0.27597   0.28211   0.28614   0.28794
 Alpha virt. eigenvalues --    0.29072   0.29474   0.29477   0.29883   0.29889
 Alpha virt. eigenvalues --    0.30059   0.30220   0.30294   0.30663   0.30689
 Alpha virt. eigenvalues --    0.31342   0.32421   0.32437   0.32502   0.32532
 Alpha virt. eigenvalues --    0.32587   0.33512   0.33534   0.33540   0.34504
 Alpha virt. eigenvalues --    0.34514   0.35554   0.35934   0.36053   0.36838
 Alpha virt. eigenvalues --    0.37258   0.37308   0.38337   0.39310   0.39368
 Alpha virt. eigenvalues --    0.40962   0.40982   0.41961   0.42031   0.42288
 Alpha virt. eigenvalues --    0.42961   0.42995   0.43414   0.43934   0.46806
 Alpha virt. eigenvalues --    0.49775   0.49945   0.49978   0.50487   0.50642
 Alpha virt. eigenvalues --    0.50654   0.51265   0.53533   0.53778   0.55092
 Alpha virt. eigenvalues --    0.55272   0.55832   0.55837   0.55851   0.56130
 Alpha virt. eigenvalues --    0.56152   0.57078   0.57089   0.58911   0.58925
 Alpha virt. eigenvalues --    0.59348   0.59973   0.60177   0.60924   0.61183
 Alpha virt. eigenvalues --    0.61275   0.61464   0.61908   0.62135   0.62604
 Alpha virt. eigenvalues --    0.62676   0.62929   0.62934   0.63394   0.63413
 Alpha virt. eigenvalues --    0.64550   0.64820   0.65097   0.66195   0.66531
 Alpha virt. eigenvalues --    0.67169   0.67250   0.67261   0.67386   0.68612
 Alpha virt. eigenvalues --    0.68644   0.71511   0.73899   0.74147   0.74940
 Alpha virt. eigenvalues --    0.75046   0.75048   0.75931   0.76639   0.76791
 Alpha virt. eigenvalues --    0.77716   0.77823   0.77830   0.78436   0.78441
 Alpha virt. eigenvalues --    0.78454   0.78767   0.79817   0.80317   0.80439
 Alpha virt. eigenvalues --    0.81614   0.83864   0.83874   0.84223   0.85282
 Alpha virt. eigenvalues --    0.85341   0.87353   0.88698   0.90324   0.90596
 Alpha virt. eigenvalues --    0.91193   0.91414   0.91972   0.91984   0.92387
 Alpha virt. eigenvalues --    0.92810   0.94651   0.94690   0.94966   0.95393
 Alpha virt. eigenvalues --    0.95954   0.96168   0.96318   0.96832   0.96953
 Alpha virt. eigenvalues --    0.96955   0.98358   0.98389   0.98546   1.00038
 Alpha virt. eigenvalues --    1.00046   1.00108   1.00753   1.01386   1.01394
 Alpha virt. eigenvalues --    1.01529   1.02536   1.03199   1.05182   1.05478
 Alpha virt. eigenvalues --    1.06476   1.11268   1.11964   1.13046   1.13067
 Alpha virt. eigenvalues --    1.13131   1.14992   1.15035   1.15788   1.16500
 Alpha virt. eigenvalues --    1.17307   1.17540   1.17627   1.17916   1.18620
 Alpha virt. eigenvalues --    1.20693   1.21033   1.21037   1.21107   1.21386
 Alpha virt. eigenvalues --    1.21392   1.32030   1.32044   1.32702   1.32712
 Alpha virt. eigenvalues --    1.33565   1.37183   1.38569   1.43720   1.44081
 Alpha virt. eigenvalues --    1.45421   1.46372   1.46401   1.47074   1.48625
 Alpha virt. eigenvalues --    1.48672   1.48686   1.48889   1.49411   1.50662
 Alpha virt. eigenvalues --    1.50718   1.50912   1.50935   1.53653   1.53809
 Alpha virt. eigenvalues --    1.54548   1.57958   1.58216   1.59198   1.60504
 Alpha virt. eigenvalues --    1.60514   1.61919   1.62521   1.62932   1.67837
 Alpha virt. eigenvalues --    1.67855   1.71588   1.71815   1.72832   1.72846
 Alpha virt. eigenvalues --    1.72906   1.76438   1.78723   1.78725   1.81352
 Alpha virt. eigenvalues --    1.81451   1.82691   1.82700   1.83871   1.84007
 Alpha virt. eigenvalues --    1.87256   1.88264   1.89801   1.89828   1.90193
 Alpha virt. eigenvalues --    1.91686   1.91697   1.93484   1.93494   1.94244
 Alpha virt. eigenvalues --    1.94806   1.94922   1.96931   1.97691   1.99370
 Alpha virt. eigenvalues --    1.99383   2.00945   2.01182   2.02193   2.02311
 Alpha virt. eigenvalues --    2.02432   2.02452   2.02771   2.04001   2.07789
 Alpha virt. eigenvalues --    2.08531   2.13847   2.13856   2.15010   2.16270
 Alpha virt. eigenvalues --    2.16658   2.20593   2.20603   2.24252   2.24361
 Alpha virt. eigenvalues --    2.24387   2.25991   2.26040   2.26316   2.30215
 Alpha virt. eigenvalues --    2.34370   2.34400   2.35218   2.35265   2.38030
 Alpha virt. eigenvalues --    2.40290   2.40385   2.41675   2.46004   2.46673
 Alpha virt. eigenvalues --    2.48118   2.48126   2.50322   2.50817   2.51719
 Alpha virt. eigenvalues --    2.53414   2.54182   2.54908   2.54935   2.60626
 Alpha virt. eigenvalues --    2.62476   2.62579   2.63081   2.64125   2.64159
 Alpha virt. eigenvalues --    2.64190   2.66344   2.67159   2.67164   2.69141
 Alpha virt. eigenvalues --    2.69145   2.73000   2.75631   2.76286   2.79876
 Alpha virt. eigenvalues --    2.79915   2.79927   2.81308   2.81837   2.84511
 Alpha virt. eigenvalues --    2.84861   2.84932   2.84940   2.85752   2.90673
 Alpha virt. eigenvalues --    2.92422   2.92574   2.92600   2.93446   3.03848
 Alpha virt. eigenvalues --    3.06050   3.07546   3.08230   3.10173   3.10198
 Alpha virt. eigenvalues --    3.10657   3.17260   3.19876   3.20329   3.22118
 Alpha virt. eigenvalues --    3.23618   3.23624   3.23715   3.27049   3.28014
 Alpha virt. eigenvalues --    3.28027   3.28274   3.28841   3.31553   3.33756
 Alpha virt. eigenvalues --    3.33763   3.33951   3.36491   3.36528   3.36599
 Alpha virt. eigenvalues --    3.37519   3.38370   3.39111   3.40749   3.40766
 Alpha virt. eigenvalues --    3.50436   3.51672   3.52996   3.52999   3.54452
 Alpha virt. eigenvalues --    3.55038   3.57716   3.57719   3.57887   3.62903
 Alpha virt. eigenvalues --    3.70386   3.70755   3.78716   3.83463   3.83479
 Alpha virt. eigenvalues --    3.92356   3.94455   3.96329   3.99714   4.04624
 Alpha virt. eigenvalues --    4.17778   4.17784   4.42053   4.42211   4.78882
 Alpha virt. eigenvalues --    4.79761   4.80073   4.80753   4.80784   4.85188
 Alpha virt. eigenvalues --    5.07654  23.22121  23.53310  23.55973  23.72606
 Alpha virt. eigenvalues --   23.72623  23.76423  23.86051  23.94073  23.96739
 Alpha virt. eigenvalues --   23.97420  23.97450  23.98518  24.00297  24.02091
 Alpha virt. eigenvalues --   24.02522  24.03519  24.03571  24.08135  24.13459
 Alpha virt. eigenvalues --   24.13479  24.13567  24.13591  24.13823  24.13986
  Beta  occ. eigenvalues --  -10.19205 -10.19202 -10.19179 -10.19177 -10.19167
  Beta  occ. eigenvalues --  -10.19164 -10.19152 -10.19151 -10.19130 -10.19115
  Beta  occ. eigenvalues --  -10.19094 -10.19083 -10.18373 -10.18373 -10.18366
  Beta  occ. eigenvalues --  -10.18365 -10.18352 -10.18351 -10.18309 -10.18309
  Beta  occ. eigenvalues --  -10.18301 -10.18301 -10.18287 -10.18287  -0.91491
  Beta  occ. eigenvalues --   -0.87828  -0.87807  -0.83123  -0.83122  -0.81487
  Beta  occ. eigenvalues --   -0.78395  -0.76901  -0.75211  -0.75187  -0.72016
  Beta  occ. eigenvalues --   -0.72013  -0.64357  -0.64355  -0.64023  -0.64021
  Beta  occ. eigenvalues --   -0.63300  -0.57102  -0.56359  -0.54746  -0.54737
  Beta  occ. eigenvalues --   -0.54494  -0.52453  -0.48389  -0.48380  -0.46742
  Beta  occ. eigenvalues --   -0.46734  -0.46411  -0.46407  -0.45287  -0.43647
  Beta  occ. eigenvalues --   -0.43002  -0.42998  -0.42656  -0.41105  -0.41095
  Beta  occ. eigenvalues --   -0.40313  -0.39271  -0.39226  -0.38356  -0.38312
  Beta  occ. eigenvalues --   -0.36915  -0.36904  -0.36899  -0.33831  -0.33828
  Beta  occ. eigenvalues --   -0.32599  -0.32591  -0.31724  -0.27807  -0.27556
  Beta  occ. eigenvalues --   -0.26069  -0.25971  -0.21209  -0.21202
  Beta virt. eigenvalues --   -0.06518  -0.06483  -0.02903  -0.02880  -0.01128
  Beta virt. eigenvalues --   -0.00751  -0.00254  -0.00222   0.00975   0.00976
  Beta virt. eigenvalues --    0.01029   0.02547   0.02604   0.03412   0.03481
  Beta virt. eigenvalues --    0.03877   0.04474   0.04498   0.04605   0.04606
  Beta virt. eigenvalues --    0.04892   0.05909   0.07250   0.07252   0.07389
  Beta virt. eigenvalues --    0.07394   0.08461   0.08580   0.09093   0.09398
  Beta virt. eigenvalues --    0.09490   0.09496   0.09993   0.10115   0.10378
  Beta virt. eigenvalues --    0.11063   0.11441   0.11618   0.11623   0.11650
  Beta virt. eigenvalues --    0.11776   0.12143   0.12424   0.12556   0.13373
  Beta virt. eigenvalues --    0.13565   0.13570   0.14098   0.14101   0.14289
  Beta virt. eigenvalues --    0.14417   0.14759   0.14841   0.15759   0.15787
  Beta virt. eigenvalues --    0.16589   0.16709   0.16786   0.17202   0.18310
  Beta virt. eigenvalues --    0.18337   0.18722   0.18750   0.18826   0.19236
  Beta virt. eigenvalues --    0.19273   0.19510   0.19517   0.20561   0.20571
  Beta virt. eigenvalues --    0.21431   0.22003   0.22071   0.22261   0.22271
  Beta virt. eigenvalues --    0.22451   0.22656   0.22690   0.22710   0.22881
  Beta virt. eigenvalues --    0.23255   0.23265   0.23729   0.24443   0.24709
  Beta virt. eigenvalues --    0.24862   0.25771   0.26648   0.27157   0.27163
  Beta virt. eigenvalues --    0.27557   0.27597   0.28211   0.28614   0.28794
  Beta virt. eigenvalues --    0.29072   0.29474   0.29477   0.29883   0.29889
  Beta virt. eigenvalues --    0.30059   0.30220   0.30294   0.30663   0.30689
  Beta virt. eigenvalues --    0.31342   0.32421   0.32437   0.32502   0.32532
  Beta virt. eigenvalues --    0.32587   0.33512   0.33534   0.33540   0.34504
  Beta virt. eigenvalues --    0.34514   0.35554   0.35934   0.36053   0.36838
  Beta virt. eigenvalues --    0.37258   0.37308   0.38337   0.39310   0.39368
  Beta virt. eigenvalues --    0.40962   0.40982   0.41961   0.42031   0.42288
  Beta virt. eigenvalues --    0.42961   0.42995   0.43414   0.43934   0.46806
  Beta virt. eigenvalues --    0.49775   0.49945   0.49978   0.50487   0.50642
  Beta virt. eigenvalues --    0.50654   0.51265   0.53533   0.53778   0.55092
  Beta virt. eigenvalues --    0.55272   0.55832   0.55837   0.55851   0.56130
  Beta virt. eigenvalues --    0.56152   0.57078   0.57089   0.58911   0.58925
  Beta virt. eigenvalues --    0.59348   0.59973   0.60177   0.60924   0.61183
  Beta virt. eigenvalues --    0.61275   0.61464   0.61908   0.62135   0.62604
  Beta virt. eigenvalues --    0.62676   0.62929   0.62934   0.63394   0.63413
  Beta virt. eigenvalues --    0.64550   0.64820   0.65097   0.66195   0.66531
  Beta virt. eigenvalues --    0.67169   0.67250   0.67261   0.67386   0.68612
  Beta virt. eigenvalues --    0.68644   0.71511   0.73899   0.74147   0.74940
  Beta virt. eigenvalues --    0.75046   0.75048   0.75931   0.76639   0.76791
  Beta virt. eigenvalues --    0.77716   0.77823   0.77830   0.78436   0.78441
  Beta virt. eigenvalues --    0.78454   0.78767   0.79817   0.80317   0.80439
  Beta virt. eigenvalues --    0.81614   0.83864   0.83874   0.84223   0.85282
  Beta virt. eigenvalues --    0.85341   0.87353   0.88698   0.90324   0.90596
  Beta virt. eigenvalues --    0.91193   0.91414   0.91972   0.91984   0.92387
  Beta virt. eigenvalues --    0.92810   0.94651   0.94690   0.94966   0.95393
  Beta virt. eigenvalues --    0.95954   0.96168   0.96318   0.96832   0.96953
  Beta virt. eigenvalues --    0.96955   0.98358   0.98389   0.98546   1.00038
  Beta virt. eigenvalues --    1.00046   1.00108   1.00753   1.01386   1.01394
  Beta virt. eigenvalues --    1.01529   1.02536   1.03199   1.05182   1.05478
  Beta virt. eigenvalues --    1.06476   1.11268   1.11964   1.13046   1.13067
  Beta virt. eigenvalues --    1.13131   1.14992   1.15035   1.15788   1.16500
  Beta virt. eigenvalues --    1.17307   1.17540   1.17627   1.17916   1.18620
  Beta virt. eigenvalues --    1.20693   1.21033   1.21037   1.21107   1.21386
  Beta virt. eigenvalues --    1.21392   1.32030   1.32044   1.32702   1.32712
  Beta virt. eigenvalues --    1.33565   1.37183   1.38569   1.43720   1.44081
  Beta virt. eigenvalues --    1.45421   1.46372   1.46401   1.47074   1.48625
  Beta virt. eigenvalues --    1.48672   1.48686   1.48889   1.49411   1.50662
  Beta virt. eigenvalues --    1.50718   1.50912   1.50935   1.53653   1.53809
  Beta virt. eigenvalues --    1.54548   1.57958   1.58216   1.59198   1.60504
  Beta virt. eigenvalues --    1.60514   1.61919   1.62521   1.62932   1.67837
  Beta virt. eigenvalues --    1.67855   1.71588   1.71815   1.72832   1.72846
  Beta virt. eigenvalues --    1.72906   1.76438   1.78723   1.78725   1.81352
  Beta virt. eigenvalues --    1.81451   1.82691   1.82700   1.83871   1.84007
  Beta virt. eigenvalues --    1.87256   1.88264   1.89801   1.89828   1.90193
  Beta virt. eigenvalues --    1.91686   1.91697   1.93484   1.93494   1.94244
  Beta virt. eigenvalues --    1.94806   1.94922   1.96931   1.97691   1.99370
  Beta virt. eigenvalues --    1.99383   2.00945   2.01182   2.02193   2.02311
  Beta virt. eigenvalues --    2.02432   2.02452   2.02771   2.04001   2.07789
  Beta virt. eigenvalues --    2.08531   2.13847   2.13856   2.15010   2.16270
  Beta virt. eigenvalues --    2.16658   2.20593   2.20603   2.24252   2.24361
  Beta virt. eigenvalues --    2.24387   2.25991   2.26040   2.26316   2.30215
  Beta virt. eigenvalues --    2.34370   2.34400   2.35218   2.35265   2.38030
  Beta virt. eigenvalues --    2.40290   2.40385   2.41675   2.46004   2.46673
  Beta virt. eigenvalues --    2.48118   2.48126   2.50322   2.50817   2.51719
  Beta virt. eigenvalues --    2.53414   2.54182   2.54908   2.54935   2.60626
  Beta virt. eigenvalues --    2.62476   2.62579   2.63081   2.64125   2.64159
  Beta virt. eigenvalues --    2.64190   2.66344   2.67159   2.67164   2.69141
  Beta virt. eigenvalues --    2.69145   2.73000   2.75631   2.76286   2.79876
  Beta virt. eigenvalues --    2.79915   2.79927   2.81308   2.81837   2.84511
  Beta virt. eigenvalues --    2.84861   2.84932   2.84940   2.85752   2.90673
  Beta virt. eigenvalues --    2.92422   2.92574   2.92600   2.93446   3.03848
  Beta virt. eigenvalues --    3.06050   3.07546   3.08230   3.10173   3.10198
  Beta virt. eigenvalues --    3.10657   3.17260   3.19876   3.20329   3.22118
  Beta virt. eigenvalues --    3.23618   3.23624   3.23715   3.27049   3.28014
  Beta virt. eigenvalues --    3.28027   3.28274   3.28841   3.31553   3.33756
  Beta virt. eigenvalues --    3.33763   3.33951   3.36491   3.36528   3.36599
  Beta virt. eigenvalues --    3.37519   3.38370   3.39111   3.40749   3.40766
  Beta virt. eigenvalues --    3.50436   3.51672   3.52996   3.52999   3.54452
  Beta virt. eigenvalues --    3.55038   3.57716   3.57719   3.57887   3.62903
  Beta virt. eigenvalues --    3.70386   3.70755   3.78716   3.83463   3.83479
  Beta virt. eigenvalues --    3.92356   3.94455   3.96329   3.99714   4.04624
  Beta virt. eigenvalues --    4.17778   4.17784   4.42053   4.42211   4.78882
  Beta virt. eigenvalues --    4.79761   4.80073   4.80753   4.80784   4.85188
  Beta virt. eigenvalues --    5.07654  23.22121  23.53310  23.55973  23.72606
  Beta virt. eigenvalues --   23.72623  23.76423  23.86051  23.94073  23.96739
  Beta virt. eigenvalues --   23.97420  23.97450  23.98518  24.00297  24.02091
  Beta virt. eigenvalues --   24.02522  24.03519  24.03571  24.08135  24.13459
  Beta virt. eigenvalues --   24.13479  24.13567  24.13591  24.13823  24.13986
          Condensed to atoms (all electrons):
               1          2          3          4          5          6
     1  C    9.108435  -1.277465  -0.578780  -0.077869  -2.085917   1.740540
     2  C   -1.277465   9.195201   0.602940   0.546580   0.726219  -2.069667
     3  C   -0.578780   0.602940   6.784084   0.062648   0.652239  -0.070954
     4  C   -0.077869   0.546580   0.062648   6.669290   0.489611  -0.586401
     5  C   -2.085917   0.726219   0.652239   0.489611   9.433181  -1.250333
     6  C    1.740540  -2.069667  -0.070954  -0.586401  -1.250333   9.173991
     7  C   -0.492143   0.607360   0.000410   0.313570   0.041225  -0.502653
     8  C   -0.583563   0.177913   0.144417   0.137879   0.611938  -0.621030
     9  C   -0.004962  -0.026517   0.267913   0.287505   0.096938   0.088994
    10  C    0.002906   0.115018   0.287505   0.043351   0.073727  -0.070612
    11  C   -0.019422  -0.013222  -0.026517   0.115018  -0.027120   0.064153
    12  C   -0.076336  -0.014930  -0.036607  -0.519118  -0.202021  -0.047700
    13  C   -0.045923   0.063364   0.070827  -0.550946  -0.034188   0.152254
    14  C   -0.172522  -0.073245   0.181051   0.570832   0.734271   0.013694
    15  C    0.446976  -0.178630  -0.591474  -0.046213  -2.090968   0.133781
    16  C    0.154189  -0.000638  -0.613683  -0.558716  -1.267293  -0.445305
    17  H    0.025579   0.020209  -0.017263   0.008648  -0.138651  -0.002505
    18  H    0.005314  -0.003159  -0.002360  -0.000186  -0.041203  -0.001143
    19  H    0.381023  -0.136136   0.006121   0.000035  -0.042799   0.040119
    20  H    0.039294  -0.041721  -0.000522   0.005794  -0.131226   0.379774
    21  H   -0.001252   0.000435   0.000477  -0.002666  -0.002908  -0.000856
    22  H   -0.001779   0.000989   0.005050  -0.014097   0.018718  -0.001534
    23  C   -0.249524  -1.160567  -0.627593  -0.486031  -0.101813   0.244436
    24  C    0.248870  -1.941306  -0.153161  -0.478132  -0.235523   0.492208
    25  C   -0.125576   0.651428   0.674450   0.057990   0.010057  -0.239077
    26  H    0.002267  -0.136851   0.006579  -0.015846   0.019154   0.028375
    27  H    0.000247  -0.040007  -0.001342  -0.001808  -0.003433   0.005554
    28  C    0.106403  -0.073720  -0.544520   0.029167   0.084786  -0.066176
    29  C   -0.066427  -0.213193  -0.545991  -0.045551  -0.009472  -0.086767
    30  C    0.087337  -0.027120   0.096938   0.073727  -0.047847  -0.006111
    31  H   -0.001794   0.018834  -0.015510   0.004280   0.001333  -0.001952
    32  H   -0.001099  -0.003592  -0.001690  -0.000066   0.000557  -0.001358
    33  C    0.035049  -0.019422  -0.004962   0.002906   0.087337   0.042670
    34  H    0.000689   0.000436   0.000507   0.005143   0.001166   0.000247
    35  C    0.042670   0.064153   0.088994  -0.070612  -0.006111   0.036383
    36  H    0.000198   0.000875   0.005784  -0.000742   0.000641   0.000670
    37  H   -0.016965   0.022684  -0.106607   0.030390  -0.017583  -0.020034
    38  H   -0.025143   0.050072  -0.107055   0.012851   0.002425  -0.025224
               7          8          9         10         11         12
     1  C   -0.492143  -0.583563  -0.004962   0.002906  -0.019422  -0.076336
     2  C    0.607360   0.177913  -0.026517   0.115018  -0.013222  -0.014930
     3  C    0.000410   0.144417   0.267913   0.287505  -0.026517  -0.036607
     4  C    0.313570   0.137879   0.287505   0.043351   0.115018  -0.519118
     5  C    0.041225   0.611938   0.096938   0.073727  -0.027120  -0.202021
     6  C   -0.502653  -0.621030   0.088994  -0.070612   0.064153  -0.047700
     7  C    6.653458   0.170455   0.144417   0.137879   0.177913   0.032109
     8  C    0.170455   6.653458   0.000410   0.313570   0.607360  -0.143656
     9  C    0.144417   0.000410   6.784084   0.062648   0.602940  -0.627593
    10  C    0.137879   0.313570   0.062648   6.669290   0.546580  -0.486031
    11  C    0.177913   0.607360   0.602940   0.546580   9.195201  -1.160567
    12  C    0.032109  -0.143656  -0.627593  -0.486031  -1.160567   8.957175
    13  C   -0.064189  -0.614677  -0.153161  -0.478132  -1.941306   1.610606
    14  C    0.007126   0.547355   0.674450   0.057990   0.651428  -1.970032
    15  C   -0.005291  -0.541113  -0.544520   0.029167  -0.073720   0.218439
    16  C    0.079041  -0.036040  -0.545991  -0.045551  -0.213193   0.477506
    17  H    0.004960  -0.001112  -0.001690  -0.000066  -0.003592   0.005866
    18  H    0.000104   0.008304  -0.015510   0.004280   0.018834   0.026200
    19  H   -0.015508  -0.003531   0.000507   0.005143   0.000436  -0.001260
    20  H   -0.002112  -0.015394   0.005784  -0.000742   0.000875  -0.001670
    21  H    0.005054  -0.001546   0.006579  -0.015846  -0.136851   0.379510
    22  H   -0.000648   0.005903  -0.001342  -0.001808  -0.040007   0.038621
    23  C   -0.143656   0.032109  -0.036607  -0.519118  -0.014930   0.031042
    24  C   -0.614677  -0.064189   0.070827  -0.550946   0.063364   0.037209
    25  C    0.547355   0.007126   0.181051   0.570832  -0.073245   0.073937
    26  H   -0.001546   0.005054   0.000477  -0.002666   0.000435   0.000658
    27  H    0.005903  -0.000648   0.005050  -0.014097   0.000989   0.000169
    28  C   -0.541113  -0.005291  -0.591474  -0.046213  -0.178630  -0.055954
    29  C   -0.036040   0.079041  -0.613683  -0.558716  -0.000638   0.127189
    30  C    0.611938   0.041225   0.652239   0.489611   0.726219  -0.101813
    31  H    0.008304   0.000104  -0.002360  -0.000186  -0.003159  -0.001017
    32  H   -0.001112   0.004960  -0.017263   0.008648   0.020209  -0.001337
    33  C   -0.583563  -0.492143  -0.578780  -0.077869  -1.277465  -0.249524
    34  H   -0.003531  -0.015508   0.006121   0.000035  -0.136136   0.001292
    35  C   -0.621030  -0.502653  -0.070954  -0.586401  -2.069667   0.244436
    36  H   -0.015394  -0.002112  -0.000522   0.005794  -0.041721   0.000723
    37  H    0.092148   0.078036  -0.107055   0.012851   0.050072  -0.004265
    38  H    0.078036   0.092148  -0.106607   0.030390   0.022684  -0.005374
              13         14         15         16         17         18
     1  C   -0.045923  -0.172522   0.446976   0.154189   0.025579   0.005314
     2  C    0.063364  -0.073245  -0.178630  -0.000638   0.020209  -0.003159
     3  C    0.070827   0.181051  -0.591474  -0.613683  -0.017263  -0.002360
     4  C   -0.550946   0.570832  -0.046213  -0.558716   0.008648  -0.000186
     5  C   -0.034188   0.734271  -2.090968  -1.267293  -0.138651  -0.041203
     6  C    0.152254   0.013694   0.133781  -0.445305  -0.002505  -0.001143
     7  C   -0.064189   0.007126  -0.005291   0.079041   0.004960   0.000104
     8  C   -0.614677   0.547355  -0.541113  -0.036040  -0.001112   0.008304
     9  C   -0.153161   0.674450  -0.544520  -0.545991  -0.001690  -0.015510
    10  C   -0.478132   0.057990   0.029167  -0.045551  -0.000066   0.004280
    11  C   -1.941306   0.651428  -0.073720  -0.213193  -0.003592   0.018834
    12  C    1.610606  -1.970032   0.218439   0.477506   0.005866   0.026200
    13  C    9.001196  -1.180407  -0.336545   0.195900   0.000368  -0.001515
    14  C   -1.180407   9.320957  -1.315432  -2.099414  -0.039855  -0.136139
    15  C   -0.336545  -1.315432   9.167777   1.786126   0.045621   0.385180
    16  C    0.195900  -2.099414   1.786126   9.182563   0.385342   0.045457
    17  H    0.000368  -0.039855   0.045621   0.385342   0.471586  -0.007995
    18  H   -0.001515  -0.136139   0.385180   0.045457  -0.007995   0.472492
    19  H   -0.000836  -0.002539   0.005580   0.000377   0.000239  -0.000240
    20  H   -0.001214   0.020204   0.027559  -0.000964   0.004609   0.000495
    21  H    0.039399  -0.039832   0.001291   0.005982  -0.000225   0.000283
    22  H    0.378148  -0.129817   0.001060   0.028221   0.000475   0.004931
    23  C    0.037209   0.073937  -0.055954   0.127189  -0.001337  -0.001017
    24  C    0.031630  -0.009255  -0.081330  -0.057235  -0.001800  -0.001333
    25  C   -0.009255  -0.025425  -0.017950   0.071047   0.001170   0.000537
    26  H    0.000209   0.001140  -0.001746  -0.001383   0.000033   0.000031
    27  H    0.000640   0.000629  -0.001301  -0.000939   0.000025  -0.000021
    28  C   -0.081330  -0.017950   0.037492   0.044884   0.000246   0.000695
    29  C   -0.057235   0.071047   0.044884   0.037996   0.000691   0.000258
    30  C   -0.235523   0.010057   0.084786  -0.009472   0.000557   0.001333
    31  H   -0.001333   0.000537   0.000695   0.000258  -0.000003   0.000012
    32  H   -0.001800   0.001170   0.000246   0.000691   0.000012  -0.000003
    33  C    0.248870  -0.125576   0.106403  -0.066427  -0.001099  -0.001794
    34  H    0.028374   0.019292  -0.001498  -0.001778   0.000032   0.000039
    35  C    0.492208  -0.239077  -0.066176  -0.086767  -0.001358  -0.001952
    36  H    0.005677  -0.003457  -0.001001  -0.001335  -0.000021   0.000023
    37  H   -0.005145  -0.025081   0.025109   0.023596   0.000032   0.000458
    38  H   -0.009090  -0.036714   0.026899   0.029930   0.000460   0.000087
              19         20         21         22         23         24
     1  C    0.381023   0.039294  -0.001252  -0.001779  -0.249524   0.248870
     2  C   -0.136136  -0.041721   0.000435   0.000989  -1.160567  -1.941306
     3  C    0.006121  -0.000522   0.000477   0.005050  -0.627593  -0.153161
     4  C    0.000035   0.005794  -0.002666  -0.014097  -0.486031  -0.478132
     5  C   -0.042799  -0.131226  -0.002908   0.018718  -0.101813  -0.235523
     6  C    0.040119   0.379774  -0.000856  -0.001534   0.244436   0.492208
     7  C   -0.015508  -0.002112   0.005054  -0.000648  -0.143656  -0.614677
     8  C   -0.003531  -0.015394  -0.001546   0.005903   0.032109  -0.064189
     9  C    0.000507   0.005784   0.006579  -0.001342  -0.036607   0.070827
    10  C    0.005143  -0.000742  -0.015846  -0.001808  -0.519118  -0.550946
    11  C    0.000436   0.000875  -0.136851  -0.040007  -0.014930   0.063364
    12  C   -0.001260  -0.001670   0.379510   0.038621   0.031042   0.037209
    13  C   -0.000836  -0.001214   0.039399   0.378148   0.037209   0.031630
    14  C   -0.002539   0.020204  -0.039832  -0.129817   0.073937  -0.009255
    15  C    0.005580   0.027559   0.001291   0.001060  -0.055954  -0.081330
    16  C    0.000377  -0.000964   0.005982   0.028221   0.127189  -0.057235
    17  H    0.000239   0.004609  -0.000225   0.000475  -0.001337  -0.001800
    18  H   -0.000240   0.000495   0.000283   0.004931  -0.001017  -0.001333
    19  H    0.471097  -0.008868  -0.000019   0.000027   0.001292   0.028374
    20  H   -0.008868   0.472381   0.000030   0.000064   0.000723   0.005677
    21  H   -0.000019   0.000030   0.470769  -0.008665   0.000658   0.000209
    22  H    0.000027   0.000064  -0.008665   0.472958   0.000169   0.000640
    23  C    0.001292   0.000723   0.000658   0.000169   8.957175   1.610606
    24  C    0.028374   0.005677   0.000209   0.000640   1.610606   9.001196
    25  C    0.019292  -0.003457   0.001140   0.000629  -1.970032  -1.180407
    26  H    0.004212   0.000351   0.000013  -0.000002   0.379510   0.039399
    27  H    0.000415  -0.000254  -0.000002   0.000011   0.038621   0.378148
    28  C   -0.001498  -0.001001  -0.001746  -0.001301   0.218439  -0.336545
    29  C   -0.001778  -0.001335  -0.001383  -0.000939   0.477506   0.195900
    30  C    0.001166   0.000641   0.019154  -0.003433  -0.202021  -0.034188
    31  H    0.000039   0.000023   0.000031  -0.000021   0.026200  -0.001515
    32  H    0.000032  -0.000021   0.000033   0.000025   0.005866   0.000368
    33  C    0.000689   0.000198   0.002267   0.000247  -0.076336  -0.045923
    34  H    0.000013  -0.000001   0.004212   0.000415  -0.001260  -0.000836
    35  C    0.000247   0.000670   0.028375   0.005554  -0.047700   0.152254
    36  H   -0.000001   0.000011   0.000351  -0.000254  -0.001670  -0.001214
    37  H   -0.000134  -0.000022  -0.000002  -0.000065  -0.005374  -0.009090
    38  H   -0.000220  -0.000222  -0.000115   0.000115  -0.004265  -0.005145
              25         26         27         28         29         30
     1  C   -0.125576   0.002267   0.000247   0.106403  -0.066427   0.087337
     2  C    0.651428  -0.136851  -0.040007  -0.073720  -0.213193  -0.027120
     3  C    0.674450   0.006579  -0.001342  -0.544520  -0.545991   0.096938
     4  C    0.057990  -0.015846  -0.001808   0.029167  -0.045551   0.073727
     5  C    0.010057   0.019154  -0.003433   0.084786  -0.009472  -0.047847
     6  C   -0.239077   0.028375   0.005554  -0.066176  -0.086767  -0.006111
     7  C    0.547355  -0.001546   0.005903  -0.541113  -0.036040   0.611938
     8  C    0.007126   0.005054  -0.000648  -0.005291   0.079041   0.041225
     9  C    0.181051   0.000477   0.005050  -0.591474  -0.613683   0.652239
    10  C    0.570832  -0.002666  -0.014097  -0.046213  -0.558716   0.489611
    11  C   -0.073245   0.000435   0.000989  -0.178630  -0.000638   0.726219
    12  C    0.073937   0.000658   0.000169  -0.055954   0.127189  -0.101813
    13  C   -0.009255   0.000209   0.000640  -0.081330  -0.057235  -0.235523
    14  C   -0.025425   0.001140   0.000629  -0.017950   0.071047   0.010057
    15  C   -0.017950  -0.001746  -0.001301   0.037492   0.044884   0.084786
    16  C    0.071047  -0.001383  -0.000939   0.044884   0.037996  -0.009472
    17  H    0.001170   0.000033   0.000025   0.000246   0.000691   0.000557
    18  H    0.000537   0.000031  -0.000021   0.000695   0.000258   0.001333
    19  H    0.019292   0.004212   0.000415  -0.001498  -0.001778   0.001166
    20  H   -0.003457   0.000351  -0.000254  -0.001001  -0.001335   0.000641
    21  H    0.001140   0.000013  -0.000002  -0.001746  -0.001383   0.019154
    22  H    0.000629  -0.000002   0.000011  -0.001301  -0.000939  -0.003433
    23  C   -1.970032   0.379510   0.038621   0.218439   0.477506  -0.202021
    24  C   -1.180407   0.039399   0.378148  -0.336545   0.195900  -0.034188
    25  C    9.320957  -0.039832  -0.129817  -1.315432  -2.099414   0.734271
    26  H   -0.039832   0.470769  -0.008665   0.001291   0.005982  -0.002908
    27  H   -0.129817  -0.008665   0.472958   0.001060   0.028221   0.018718
    28  C   -1.315432   0.001291   0.001060   9.167777   1.786126  -2.090968
    29  C   -2.099414   0.005982   0.028221   1.786126   9.182563  -1.267293
    30  C    0.734271  -0.002908   0.018718  -2.090968  -1.267293   9.433181
    31  H   -0.136139   0.000283   0.004931   0.385180   0.045457  -0.041203
    32  H   -0.039855  -0.000225   0.000475   0.045621   0.385342  -0.138651
    33  C   -0.172522  -0.001252  -0.001779   0.446976   0.154189  -2.085917
    34  H   -0.002539  -0.000019   0.000027   0.005580   0.000377  -0.042799
    35  C    0.013694  -0.000856  -0.001534   0.133781  -0.445305  -1.250333
    36  H    0.020204   0.000030   0.000064   0.027559  -0.000964  -0.131226
    37  H   -0.036714  -0.000115   0.000115   0.026899   0.029930   0.002425
    38  H   -0.025081  -0.000002  -0.000065   0.025109   0.023596  -0.017583
              31         32         33         34         35         36
     1  C   -0.001794  -0.001099   0.035049   0.000689   0.042670   0.000198
     2  C    0.018834  -0.003592  -0.019422   0.000436   0.064153   0.000875
     3  C   -0.015510  -0.001690  -0.004962   0.000507   0.088994   0.005784
     4  C    0.004280  -0.000066   0.002906   0.005143  -0.070612  -0.000742
     5  C    0.001333   0.000557   0.087337   0.001166  -0.006111   0.000641
     6  C   -0.001952  -0.001358   0.042670   0.000247   0.036383   0.000670
     7  C    0.008304  -0.001112  -0.583563  -0.003531  -0.621030  -0.015394
     8  C    0.000104   0.004960  -0.492143  -0.015508  -0.502653  -0.002112
     9  C   -0.002360  -0.017263  -0.578780   0.006121  -0.070954  -0.000522
    10  C   -0.000186   0.008648  -0.077869   0.000035  -0.586401   0.005794
    11  C   -0.003159   0.020209  -1.277465  -0.136136  -2.069667  -0.041721
    12  C   -0.001017  -0.001337  -0.249524   0.001292   0.244436   0.000723
    13  C   -0.001333  -0.001800   0.248870   0.028374   0.492208   0.005677
    14  C    0.000537   0.001170  -0.125576   0.019292  -0.239077  -0.003457
    15  C    0.000695   0.000246   0.106403  -0.001498  -0.066176  -0.001001
    16  C    0.000258   0.000691  -0.066427  -0.001778  -0.086767  -0.001335
    17  H   -0.000003   0.000012  -0.001099   0.000032  -0.001358  -0.000021
    18  H    0.000012  -0.000003  -0.001794   0.000039  -0.001952   0.000023
    19  H    0.000039   0.000032   0.000689   0.000013   0.000247  -0.000001
    20  H    0.000023  -0.000021   0.000198  -0.000001   0.000670   0.000011
    21  H    0.000031   0.000033   0.002267   0.004212   0.028375   0.000351
    22  H   -0.000021   0.000025   0.000247   0.000415   0.005554  -0.000254
    23  C    0.026200   0.005866  -0.076336  -0.001260  -0.047700  -0.001670
    24  C   -0.001515   0.000368  -0.045923  -0.000836   0.152254  -0.001214
    25  C   -0.136139  -0.039855  -0.172522  -0.002539   0.013694   0.020204
    26  H    0.000283  -0.000225  -0.001252  -0.000019  -0.000856   0.000030
    27  H    0.004931   0.000475  -0.001779   0.000027  -0.001534   0.000064
    28  C    0.385180   0.045621   0.446976   0.005580   0.133781   0.027559
    29  C    0.045457   0.385342   0.154189   0.000377  -0.445305  -0.000964
    30  C   -0.041203  -0.138651  -2.085917  -0.042799  -1.250333  -0.131226
    31  H    0.472492  -0.007995   0.005314  -0.000240  -0.001143   0.000495
    32  H   -0.007995   0.471586   0.025579   0.000239  -0.002505   0.004609
    33  C    0.005314   0.025579   9.108435   0.381023   1.740540   0.039294
    34  H   -0.000240   0.000239   0.381023   0.471097   0.040119  -0.008868
    35  C   -0.001143  -0.002505   1.740540   0.040119   9.173991   0.379774
    36  H    0.000495   0.004609   0.039294  -0.008868   0.379774   0.472381
    37  H    0.000087   0.000460  -0.025143  -0.000220  -0.025224  -0.000222
    38  H    0.000458   0.000032  -0.016965  -0.000134  -0.020034  -0.000022
              37         38
     1  C   -0.016965  -0.025143
     2  C    0.022684   0.050072
     3  C   -0.106607  -0.107055
     4  C    0.030390   0.012851
     5  C   -0.017583   0.002425
     6  C   -0.020034  -0.025224
     7  C    0.092148   0.078036
     8  C    0.078036   0.092148
     9  C   -0.107055  -0.106607
    10  C    0.012851   0.030390
    11  C    0.050072   0.022684
    12  C   -0.004265  -0.005374
    13  C   -0.005145  -0.009090
    14  C   -0.025081  -0.036714
    15  C    0.025109   0.026899
    16  C    0.023596   0.029930
    17  H    0.000032   0.000460
    18  H    0.000458   0.000087
    19  H   -0.000134  -0.000220
    20  H   -0.000022  -0.000222
    21  H   -0.000002  -0.000115
    22  H   -0.000065   0.000115
    23  C   -0.005374  -0.004265
    24  C   -0.009090  -0.005145
    25  C   -0.036714  -0.025081
    26  H   -0.000115  -0.000002
    27  H    0.000115  -0.000065
    28  C    0.026899   0.025109
    29  C    0.029930   0.023596
    30  C    0.002425  -0.017583
    31  H    0.000087   0.000458
    32  H    0.000460   0.000032
    33  C   -0.025143  -0.016965
    34  H   -0.000220  -0.000134
    35  C   -0.025224  -0.020034
    36  H   -0.000222  -0.000022
    37  H    0.625778   0.392287
    38  H    0.392287   0.625778
          Atomic-Atomic Spin Densities.
               1          2          3          4          5          6
     1  C    0.000000   0.000000   0.000000   0.000000   0.000000   0.000000
     2  C    0.000000   0.000000   0.000000   0.000000   0.000000   0.000000
     3  C    0.000000   0.000000   0.000000   0.000000   0.000000   0.000000
     4  C    0.000000   0.000000   0.000000   0.000000   0.000000   0.000000
     5  C    0.000000   0.000000   0.000000   0.000000   0.000000   0.000000
     6  C    0.000000   0.000000   0.000000   0.000000   0.000000   0.000000
     7  C    0.000000   0.000000   0.000000   0.000000   0.000000   0.000000
     8  C    0.000000   0.000000   0.000000   0.000000   0.000000   0.000000
     9  C    0.000000   0.000000   0.000000   0.000000   0.000000   0.000000
    10  C    0.000000   0.000000   0.000000   0.000000   0.000000   0.000000
    11  C    0.000000   0.000000   0.000000   0.000000   0.000000   0.000000
    12  C    0.000000   0.000000   0.000000   0.000000   0.000000   0.000000
    13  C    0.000000   0.000000   0.000000   0.000000   0.000000   0.000000
    14  C    0.000000   0.000000   0.000000   0.000000   0.000000   0.000000
    15  C    0.000000   0.000000   0.000000   0.000000   0.000000   0.000000
    16  C    0.000000   0.000000   0.000000   0.000000   0.000000   0.000000
    17  H    0.000000   0.000000   0.000000   0.000000   0.000000   0.000000
    18  H    0.000000   0.000000   0.000000   0.000000   0.000000   0.000000
    19  H    0.000000   0.000000   0.000000   0.000000   0.000000   0.000000
    20  H    0.000000   0.000000   0.000000   0.000000   0.000000   0.000000
    21  H    0.000000   0.000000   0.000000   0.000000   0.000000   0.000000
    22  H    0.000000   0.000000   0.000000   0.000000   0.000000   0.000000
    23  C    0.000000   0.000000   0.000000   0.000000   0.000000   0.000000
    24  C    0.000000   0.000000   0.000000   0.000000   0.000000   0.000000
    25  C    0.000000   0.000000   0.000000   0.000000   0.000000   0.000000
    26  H    0.000000   0.000000   0.000000   0.000000   0.000000   0.000000
    27  H    0.000000   0.000000   0.000000   0.000000   0.000000   0.000000
    28  C    0.000000   0.000000   0.000000   0.000000   0.000000   0.000000
    29  C    0.000000   0.000000   0.000000   0.000000   0.000000   0.000000
    30  C    0.000000   0.000000   0.000000   0.000000   0.000000   0.000000
    31  H    0.000000   0.000000   0.000000   0.000000   0.000000   0.000000
    32  H    0.000000   0.000000   0.000000   0.000000   0.000000   0.000000
    33  C    0.000000   0.000000   0.000000   0.000000   0.000000   0.000000
    34  H    0.000000   0.000000   0.000000   0.000000   0.000000   0.000000
    35  C    0.000000   0.000000   0.000000   0.000000   0.000000   0.000000
    36  H    0.000000   0.000000   0.000000   0.000000   0.000000   0.000000
    37  H    0.000000   0.000000   0.000000   0.000000   0.000000   0.000000
    38  H    0.000000   0.000000   0.000000   0.000000   0.000000   0.000000
               7          8          9         10         11         12
     1  C    0.000000   0.000000   0.000000   0.000000   0.000000   0.000000
     2  C    0.000000   0.000000   0.000000   0.000000   0.000000   0.000000
     3  C    0.000000   0.000000   0.000000   0.000000   0.000000   0.000000
     4  C    0.000000   0.000000   0.000000   0.000000   0.000000   0.000000
     5  C    0.000000   0.000000   0.000000   0.000000   0.000000   0.000000
     6  C    0.000000   0.000000   0.000000   0.000000   0.000000   0.000000
     7  C    0.000000   0.000000   0.000000   0.000000   0.000000   0.000000
     8  C    0.000000   0.000000   0.000000   0.000000   0.000000   0.000000
     9  C    0.000000   0.000000   0.000000   0.000000   0.000000   0.000000
    10  C    0.000000   0.000000   0.000000   0.000000   0.000000   0.000000
    11  C    0.000000   0.000000   0.000000   0.000000   0.000000   0.000000
    12  C    0.000000   0.000000   0.000000   0.000000   0.000000   0.000000
    13  C    0.000000   0.000000   0.000000   0.000000   0.000000   0.000000
    14  C    0.000000   0.000000   0.000000   0.000000   0.000000   0.000000
    15  C    0.000000   0.000000   0.000000   0.000000   0.000000   0.000000
    16  C    0.000000   0.000000   0.000000   0.000000   0.000000   0.000000
    17  H    0.000000   0.000000   0.000000   0.000000   0.000000   0.000000
    18  H    0.000000   0.000000   0.000000   0.000000   0.000000   0.000000
    19  H    0.000000   0.000000   0.000000   0.000000   0.000000   0.000000
    20  H    0.000000   0.000000   0.000000   0.000000   0.000000   0.000000
    21  H    0.000000   0.000000   0.000000   0.000000   0.000000   0.000000
    22  H    0.000000   0.000000   0.000000   0.000000   0.000000   0.000000
    23  C    0.000000   0.000000   0.000000   0.000000   0.000000   0.000000
    24  C    0.000000   0.000000   0.000000   0.000000   0.000000   0.000000
[...]
 Symmetry A    KE= 4.600134459294D+02
 Symmetry B    KE= 4.592892302327D+02
                          Isotropic Fermi Contact Couplings
        Atom                 a.u.       MegaHertz       Gauss      10(-4) cm-1
     1  C(13)              0.00000       0.00000       0.00000       0.00000
     2  C(13)              0.00000       0.00000       0.00000       0.00000
     3  C(13)              0.00000       0.00000       0.00000       0.00000
     4  C(13)              0.00000       0.00000       0.00000       0.00000
     5  C(13)              0.00000       0.00000       0.00000       0.00000
     6  C(13)              0.00000       0.00000       0.00000       0.00000
     7  C(13)              0.00000       0.00000       0.00000       0.00000
     8  C(13)              0.00000       0.00000       0.00000       0.00000
     9  C(13)              0.00000       0.00000       0.00000       0.00000
    10  C(13)              0.00000       0.00000       0.00000       0.00000
    11  C(13)              0.00000       0.00000       0.00000       0.00000
    12  C(13)              0.00000       0.00000       0.00000       0.00000
    13  C(13)              0.00000       0.00000       0.00000       0.00000
    14  C(13)              0.00000       0.00000       0.00000       0.00000
    15  C(13)              0.00000       0.00000       0.00000       0.00000
    16  C(13)              0.00000       0.00000       0.00000       0.00000
    17  H(1)               0.00000       0.00000       0.00000       0.00000
    18  H(1)               0.00000       0.00000       0.00000       0.00000
    19  H(1)               0.00000       0.00000       0.00000       0.00000
    20  H(1)               0.00000       0.00000       0.00000       0.00000
    21  H(1)               0.00000       0.00000       0.00000       0.00000
    22  H(1)               0.00000       0.00000       0.00000       0.00000
    23  C(13)              0.00000       0.00000       0.00000       0.00000
    24  C(13)              0.00000       0.00000       0.00000       0.00000
    25  C(13)              0.00000       0.00000       0.00000       0.00000
    26  H(1)               0.00000       0.00000       0.00000       0.00000
    27  H(1)               0.00000       0.00000       0.00000       0.00000
    28  C(13)              0.00000       0.00000       0.00000       0.00000
    29  C(13)              0.00000       0.00000       0.00000       0.00000
    30  C(13)              0.00000       0.00000       0.00000       0.00000
    31  H(1)               0.00000       0.00000       0.00000       0.00000
    32  H(1)               0.00000       0.00000       0.00000       0.00000
    33  C(13)              0.00000       0.00000       0.00000       0.00000
    34  H(1)               0.00000       0.00000       0.00000       0.00000
    35  C(13)              0.00000       0.00000       0.00000       0.00000
    36  H(1)               0.00000       0.00000       0.00000       0.00000
    37  H(1)               0.00000       0.00000       0.00000       0.00000
    38  H(1)               0.00000       0.00000       0.00000       0.00000
 --------------------------------------------------------
       Center         ----  Spin Dipole Couplings  ----
                      3XX-RR        3YY-RR        3ZZ-RR
 --------------------------------------------------------
     1   Atom        0.000000      0.000000      0.000000
     2   Atom        0.000000      0.000000      0.000000
     3   Atom        0.000000      0.000000      0.000000
     4   Atom        0.000000      0.000000      0.000000
     5   Atom        0.000000      0.000000      0.000000
     6   Atom        0.000000      0.000000      0.000000
     7   Atom        0.000000      0.000000      0.000000
     8   Atom        0.000000      0.000000      0.000000
     9   Atom        0.000000      0.000000      0.000000
    10   Atom        0.000000      0.000000      0.000000
    11   Atom        0.000000      0.000000      0.000000
    12   Atom        0.000000      0.000000      0.000000
    13   Atom        0.000000      0.000000      0.000000
    14   Atom        0.000000      0.000000      0.000000
    15   Atom        0.000000      0.000000      0.000000
    16   Atom        0.000000      0.000000      0.000000
    17   Atom        0.000000      0.000000      0.000000
    18   Atom        0.000000      0.000000      0.000000
    19   Atom        0.000000      0.000000      0.000000
    20   Atom        0.000000      0.000000      0.000000
    21   Atom        0.000000      0.000000      0.000000
    22   Atom        0.000000      0.000000      0.000000
    23   Atom        0.000000      0.000000      0.000000
    24   Atom        0.000000      0.000000      0.000000
    25   Atom        0.000000      0.000000      0.000000
    26   Atom        0.000000      0.000000      0.000000
    27   Atom        0.000000      0.000000      0.000000
    28   Atom        0.000000      0.000000      0.000000
    29   Atom        0.000000      0.000000      0.000000
    30   Atom        0.000000      0.000000      0.000000
    31   Atom        0.000000      0.000000      0.000000
    32   Atom        0.000000      0.000000      0.000000
    33   Atom        0.000000      0.000000      0.000000
    34   Atom        0.000000      0.000000      0.000000
    35   Atom        0.000000      0.000000      0.000000
    36   Atom        0.000000      0.000000      0.000000
    37   Atom        0.000000      0.000000      0.000000
    38   Atom        0.000000      0.000000      0.000000
 --------------------------------------------------------
                        XY            XZ            YZ
 --------------------------------------------------------
     1   Atom        0.000000      0.000000      0.000000
     2   Atom        0.000000      0.000000      0.000000
     3   Atom        0.000000      0.000000      0.000000
     4   Atom        0.000000      0.000000      0.000000
     5   Atom        0.000000      0.000000      0.000000
     6   Atom        0.000000      0.000000      0.000000
     7   Atom        0.000000      0.000000      0.000000
     8   Atom        0.000000      0.000000      0.000000
     9   Atom        0.000000      0.000000      0.000000
    10   Atom        0.000000      0.000000      0.000000
    11   Atom        0.000000      0.000000      0.000000
    12   Atom        0.000000      0.000000      0.000000
    13   Atom        0.000000      0.000000      0.000000
    14   Atom        0.000000      0.000000      0.000000
    15   Atom        0.000000      0.000000      0.000000
    16   Atom        0.000000      0.000000      0.000000
    17   Atom        0.000000      0.000000      0.000000
    18   Atom        0.000000      0.000000      0.000000
    19   Atom        0.000000      0.000000      0.000000
    20   Atom        0.000000      0.000000      0.000000
    21   Atom        0.000000      0.000000      0.000000
    22   Atom        0.000000      0.000000      0.000000
    23   Atom        0.000000      0.000000      0.000000
    24   Atom        0.000000      0.000000      0.000000
    25   Atom        0.000000      0.000000      0.000000
    26   Atom        0.000000      0.000000      0.000000
    27   Atom        0.000000      0.000000      0.000000
    28   Atom        0.000000      0.000000      0.000000
    29   Atom        0.000000      0.000000      0.000000
    30   Atom        0.000000      0.000000      0.000000
    31   Atom        0.000000      0.000000      0.000000
    32   Atom        0.000000      0.000000      0.000000
    33   Atom        0.000000      0.000000      0.000000
    34   Atom        0.000000      0.000000      0.000000
    35   Atom        0.000000      0.000000      0.000000
    36   Atom        0.000000      0.000000      0.000000
    37   Atom        0.000000      0.000000      0.000000
    38   Atom        0.000000      0.000000      0.000000
 --------------------------------------------------------


 ---------------------------------------------------------------------------------
              Anisotropic Spin Dipole Couplings in Principal Axis System
 ---------------------------------------------------------------------------------

       Atom             a.u.   MegaHertz   Gauss  10(-4) cm-1        Axes

              Baa     0.0000     0.000     0.000     0.000  0.7416 -0.6678 -0.0649
     1 C(13)  Bbb     0.0000     0.000     0.000     0.000  0.0281 -0.0657  0.9974
              Bcc     0.0000     0.000     0.000     0.000  0.6703  0.7415  0.0299
 
              Baa     0.0000     0.000     0.000     0.000  0.9360 -0.3286  0.1264
     2 C(13)  Bbb     0.0000     0.000     0.000     0.000 -0.1594 -0.0755  0.9843
              Bcc     0.0000     0.000     0.000     0.000  0.3139  0.9414  0.1231
 
              Baa     0.0000     0.000     0.000     0.000 -0.0117  0.2823  0.9593
     3 C(13)  Bbb     0.0000     0.000     0.000     0.000 -0.2008  0.9391 -0.2788
              Bcc     0.0000     0.000     0.000     0.000  0.9796  0.1958 -0.0457
 
              Baa     0.0000     0.000     0.000     0.000  0.9392  0.3431 -0.0107
     4 C(13)  Bbb     0.0000     0.000     0.000     0.000 -0.1008  0.3054  0.9469
              Bcc     0.0000     0.000     0.000     0.000 -0.3282  0.8882 -0.3215
 
              Baa     0.0000     0.000     0.000     0.000  0.9809 -0.1803 -0.0734
     5 C(13)  Bbb     0.0000     0.000     0.000     0.000  0.1160  0.2387  0.9641
              Bcc     0.0000     0.000     0.000     0.000  0.1563  0.9542 -0.2550
 
              Baa     0.0000     0.000     0.000     0.000  0.8569 -0.5095 -0.0778
     6 C(13)  Bbb     0.0000     0.000     0.000     0.000 -0.0318 -0.2028  0.9787
              Bcc     0.0000     0.000     0.000     0.000  0.5145  0.8362  0.1900
 
              Baa     0.0000     0.000     0.000     0.000 -0.3756  0.8731 -0.3109
     7 C(13)  Bbb     0.0000     0.000     0.000     0.000 -0.1059  0.2929  0.9503
              Bcc     0.0000     0.000     0.000     0.000  0.9207  0.3898 -0.0176
 
              Baa     0.0000     0.000     0.000     0.000 -0.3756  0.8731  0.3109
     8 C(13)  Bbb     0.0000     0.000     0.000     0.000  0.1059 -0.2929  0.9503
              Bcc     0.0000     0.000     0.000     0.000  0.9207  0.3898  0.0176
 
              Baa     0.0000     0.000     0.000     0.000  0.0117 -0.2823  0.9593
     9 C(13)  Bbb     0.0000     0.000     0.000     0.000 -0.2008  0.9391  0.2788
              Bcc     0.0000     0.000     0.000     0.000  0.9796  0.1958  0.0457
 
              Baa     0.0000     0.000     0.000     0.000  0.9392  0.3431  0.0107
    10 C(13)  Bbb     0.0000     0.000     0.000     0.000  0.1008 -0.3054  0.9469
              Bcc     0.0000     0.000     0.000     0.000 -0.3282  0.8882  0.3215
 
              Baa     0.0000     0.000     0.000     0.000  0.9360 -0.3286 -0.1264
    11 C(13)  Bbb     0.0000     0.000     0.000     0.000  0.1594  0.0755  0.9843
              Bcc     0.0000     0.000     0.000     0.000  0.3139  0.9414 -0.1231
 
              Baa     0.0000     0.000     0.000     0.000  0.3031  0.3783  0.8747
    12 C(13)  Bbb     0.0000     0.000     0.000     0.000  0.4311  0.7641 -0.4799
              Bcc     0.0000     0.000     0.000     0.000  0.8499 -0.5225 -0.0684
 
              Baa     0.0000     0.000     0.000     0.000 -0.0492  0.9984 -0.0271
    13 C(13)  Bbb     0.0000     0.000     0.000     0.000 -0.0535  0.0245  0.9983
              Bcc     0.0000     0.000     0.000     0.000  0.9974  0.0506  0.0522
 
              Baa     0.0000     0.000     0.000     0.000 -0.4805  0.7296  0.4866
    14 C(13)  Bbb     0.0000     0.000     0.000     0.000  0.2099 -0.4430  0.8716
              Bcc     0.0000     0.000     0.000     0.000  0.8515  0.5209  0.0597
 
              Baa     0.0000     0.000     0.000     0.000  0.3847 -0.4012  0.8313
    15 C(13)  Bbb     0.0000     0.000     0.000     0.000  0.6539 -0.5171 -0.5522
              Bcc     0.0000     0.000     0.000     0.000  0.6514  0.7560  0.0634
 
              Baa     0.0000     0.000     0.000     0.000 -0.1357  0.9862 -0.0952
    16 C(13)  Bbb     0.0000     0.000     0.000     0.000 -0.0396  0.0906  0.9951
              Bcc     0.0000     0.000     0.000     0.000  0.9900  0.1388  0.0268
 
              Baa     0.0000     0.000     0.000     0.000  0.7742  0.6297 -0.0644
    17 H(1)   Bbb     0.0000     0.000     0.000     0.000  0.0517  0.0384  0.9979
              Bcc     0.0000     0.000     0.000     0.000 -0.6308  0.7759  0.0028
 
              Baa     0.0000     0.000     0.000     0.000 -0.3872  0.9202 -0.0575
    18 H(1)   Bbb     0.0000     0.000     0.000     0.000 -0.0384  0.0462  0.9982
              Bcc     0.0000     0.000     0.000     0.000  0.9212  0.3887  0.0175
 
              Baa     0.0000     0.000     0.000     0.000  0.9752 -0.1726 -0.1384
    19 H(1)   Bbb     0.0000     0.000     0.000     0.000  0.1302 -0.0579  0.9898
              Bcc     0.0000     0.000     0.000     0.000  0.1789  0.9833  0.0340
 
              Baa     0.0000     0.000     0.000     0.000  0.8146  0.5798  0.0174
    20 H(1)   Bbb     0.0000     0.000     0.000     0.000 -0.5791  0.8146 -0.0322
              Bcc     0.0000     0.000     0.000     0.000 -0.0328  0.0161  0.9993
 
              Baa     0.0000     0.000     0.000     0.000 -0.0123 -0.0004  0.9999
    21 H(1)   Bbb     0.0000     0.000     0.000     0.000  0.7616 -0.6480  0.0091
              Bcc     0.0000     0.000     0.000     0.000  0.6480  0.7616  0.0083
 
              Baa     0.0000     0.000     0.000     0.000  0.2684  0.9630 -0.0235
    22 H(1)   Bbb     0.0000     0.000     0.000     0.000 -0.0148  0.0285  0.9995
              Bcc     0.0000     0.000     0.000     0.000  0.9632 -0.2680  0.0219
 
              Baa     0.0000     0.000     0.000     0.000 -0.3030 -0.3783  0.8747
    23 C(13)  Bbb     0.0000     0.000     0.000     0.000  0.4311  0.7641  0.4799
              Bcc     0.0000     0.000     0.000     0.000  0.8499 -0.5225  0.0684
 
              Baa     0.0000     0.000     0.000     0.000 -0.0492  0.9984  0.0271
    24 C(13)  Bbb     0.0000     0.000     0.000     0.000  0.0535 -0.0245  0.9983
              Bcc     0.0000     0.000     0.000     0.000  0.9974  0.0506 -0.0522
 
              Baa     0.0000     0.000     0.000     0.000 -0.4805  0.7296 -0.4866
    25 C(13)  Bbb     0.0000     0.000     0.000     0.000 -0.2099  0.4430  0.8716
              Bcc     0.0000     0.000     0.000     0.000  0.8515  0.5209 -0.0597
 
              Baa     0.0000     0.000     0.000     0.000  0.0123  0.0004  0.9999
    26 H(1)   Bbb     0.0000     0.000     0.000     0.000  0.7616 -0.6480 -0.0091
              Bcc     0.0000     0.000     0.000     0.000  0.6480  0.7616 -0.0083
 
              Baa     0.0000     0.000     0.000     0.000  0.2684  0.9630  0.0235
    27 H(1)   Bbb     0.0000     0.000     0.000     0.000  0.0148 -0.0285  0.9995
              Bcc     0.0000     0.000     0.000     0.000  0.9632 -0.2680 -0.0219
 
              Baa     0.0000     0.000     0.000     0.000 -0.3847  0.4012  0.8313
    28 C(13)  Bbb     0.0000     0.000     0.000     0.000  0.6539 -0.5171  0.5522
              Bcc     0.0000     0.000     0.000     0.000  0.6514  0.7560 -0.0634
 
              Baa     0.0000     0.000     0.000     0.000 -0.1357  0.9862  0.0952
    29 C(13)  Bbb     0.0000     0.000     0.000     0.000  0.0396 -0.0906  0.9951
              Bcc     0.0000     0.000     0.000     0.000  0.9900  0.1388 -0.0268
 
              Baa     0.0000     0.000     0.000     0.000  0.9809 -0.1803  0.0734
    30 C(13)  Bbb     0.0000     0.000     0.000     0.000 -0.1160 -0.2387  0.9641
              Bcc     0.0000     0.000     0.000     0.000  0.1563  0.9542  0.2550
 
              Baa     0.0000     0.000     0.000     0.000 -0.3872  0.9202  0.0575
    31 H(1)   Bbb     0.0000     0.000     0.000     0.000  0.0384 -0.0462  0.9982
              Bcc     0.0000     0.000     0.000     0.000  0.9212  0.3887 -0.0175
 
              Baa     0.0000     0.000     0.000     0.000  0.7742  0.6297  0.0644
    32 H(1)   Bbb     0.0000     0.000     0.000     0.000 -0.0517 -0.0384  0.9979
              Bcc     0.0000     0.000     0.000     0.000 -0.6308  0.7759 -0.0028
 
              Baa     0.0000     0.000     0.000     0.000  0.7416 -0.6678  0.0649
    33 C(13)  Bbb     0.0000     0.000     0.000     0.000 -0.0281  0.0657  0.9974
              Bcc     0.0000     0.000     0.000     0.000  0.6703  0.7415 -0.0299
 
              Baa     0.0000     0.000     0.000     0.000  0.9752 -0.1726  0.1384
    34 H(1)   Bbb     0.0000     0.000     0.000     0.000 -0.1302  0.0579  0.9898
              Bcc     0.0000     0.000     0.000     0.000  0.1789  0.9833 -0.0340
 
              Baa     0.0000     0.000     0.000     0.000  0.8569 -0.5095  0.0778
    35 C(13)  Bbb     0.0000     0.000     0.000     0.000  0.0318  0.2028  0.9787
              Bcc     0.0000     0.000     0.000     0.000  0.5145  0.8362 -0.1900
 
              Baa     0.0000     0.000     0.000     0.000  0.8146  0.5798 -0.0174
    36 H(1)   Bbb     0.0000     0.000     0.000     0.000 -0.5791  0.8146  0.0322
              Bcc     0.0000     0.000     0.000     0.000  0.0328 -0.0161  0.9993
 
              Baa     0.0000     0.000     0.000     0.000 -0.0183  0.9953 -0.0948
    37 H(1)   Bbb     0.0000     0.000     0.000     0.000  0.0339  0.0953  0.9949
              Bcc     0.0000     0.000     0.000     0.000  0.9993  0.0150 -0.0354
 
              Baa     0.0000     0.000     0.000     0.000 -0.0183  0.9953  0.0948
    38 H(1)   Bbb     0.0000     0.000     0.000     0.000 -0.0339 -0.0953  0.9949
              Bcc     0.0000     0.000     0.000     0.000  0.9993  0.0150  0.0354
 

 ---------------------------------------------------------------------------------

 1\1\GINC-CN-0044\SP\UB3LYP\6-311++G(d)\C24H14\JZ21\13-Oct-2014\0\\# sp
  ub3lyp/6-311++G* EmpiricalDispersion=GD3BJ guess=read\\Single point N
 o 03\\0,1\C,0,-3.678422,-0.68439,0.014072\C,0,-2.462606,-1.421394,0.01
 0223\C,0,-1.233798,-0.712228,0.004589\C,0,-1.233899,0.712536,0.004252\
 C,0,-2.462518,1.421877,0.009963\C,0,-3.678423,0.685237,0.01396\C,0,0.0
 00051,-1.42467,0.003888\C,0,-0.000051,1.42467,0.003888\C,0,1.233798,0.
 712228,0.004589\C,0,1.233899,-0.712536,0.004252\C,0,2.462606,1.421394,
 0.010223\C,0,2.43228,2.842778,0.013392\C,0,1.246103,3.527562,0.012896\
 C,0,-0.000095,2.843231,0.009323\C,0,-1.246157,3.527834,0.012836\C,0,-2
 .432382,2.843193,0.013214\H,0,-3.373635,3.38434,0.016957\H,0,-1.244149
 ,4.613563,0.016317\H,0,-4.617753,-1.228859,0.017848\H,0,-4.61762,1.229
 959,0.017735\H,0,3.37355,3.383957,0.01704\H,0,1.244343,4.613318,0.0162
 71\C,0,-2.43228,-2.842778,0.013392\C,0,-1.246103,-3.527562,0.012896\C,
 0,0.000095,-2.843231,0.009323\H,0,-3.37355,-3.383957,0.01704\H,0,-1.24
 4343,-4.613318,0.016271\C,0,1.246157,-3.527834,0.012836\C,0,2.432382,-
 2.843193,0.013214\C,0,2.462518,-1.421877,0.009963\H,0,1.244149,-4.6135
 63,0.016317\H,0,3.373635,-3.38434,0.016957\C,0,3.678422,0.68439,0.0140
 72\H,0,4.617753,1.228859,0.017848\C,0,3.678423,-0.685237,0.01396\H,0,4
 .61762,-1.229959,0.017735\H,0,0.347056,0.130964,2.371056\H,0,-0.347056
 ,-0.130964,2.371056\\Version=EM64L-G09RevD.01\State=1-A\HF=-923.359918
 2\S2=0.\S2-1=0.\S2A=0.\RMSD=8.355e-09\Dipole=0.,0.,-0.0269269\Quadrupo
 le=7.137622,6.9516264,-14.0892485,0.0718729,0.,0.\PG=C02 [X(C24H14)]\\
 @


 IT IS BY EATING THE LIGHT OF A STAR THAT WE EXIST, 
 IN THE FINAL ANALYSIS, 
 JUST AS IT IS BY PERCEIVING THE LIGHT OF STARS
 THAT WE DEFINE THE WORLD AROUND US.

                                    -- GILBERT GROSVENOR
 Job cpu time:       0 days  0 hours 45 minutes 28.6 seconds.
 File lengths (MBytes):  RWF=    324 Int=      0 D2E=      0 Chk=     22 Scr=      1
 Normal termination of Gaussian 09 at Mon Oct 13 00:08:20 2014.
